Protein in water
 2638
    1ACE    CH3    1   0.560   2.593   1.526 -0.1207  0.4241  0.0458
    1ACE   HH31    2   0.534   2.561   1.419  1.8298  1.3014  1.0369
    1ACE   HH32    3   0.654   2.531   1.557  0.9988 -3.5987  0.8636
    1ACE   HH33    4   0.475   2.575   1.597  2.3384  0.7684  1.2724
    1ACE      C    5   0.589   2.736   1.523  0.5572 -0.7614 -0.0121
    1ACE      O    6   0.542   2.814   1.432 -0.8462 -0.9419  0.0032
    2ALA      N    7   0.688   2.767   1.606  0.4570  0.8971 -0.0574
    2ALA     HN    8   0.713   2.699   1.675 -0.9101  1.5681  1.7543
    2ALA     CA    9   0.736   2.905   1.619 -0.2346  0.1643  0.1585
    2ALA     HA   10   0.650   2.955   1.646  0.9204  0.9503 -0.4044
    2ALA     CB   11   0.828   2.930   1.745 -0.7748  0.9289 -0.1351
    2ALA    HB1   12   0.774   2.927   1.842  1.7764 -2.2788  0.1602
    2ALA    HB2   13   0.912   2.859   1.735 -1.1045 -0.6612 -2.0388
    2ALA    HB3   14   0.861   3.033   1.736  0.8118 -3.2193 -1.3139
    2ALA      C   15   0.811   2.956   1.491  0.7589 -0.1199  0.4021
    2ALA      O   16   0.792   3.065   1.432  0.5219  0.1963  0.6890
    3ARG      N   17   0.893   2.868   1.432 -0.4926  0.4598  0.7632
    3ARG     HN   18   0.907   2.778   1.474 -1.7197 -1.8252 -1.2987
    3ARG     CA   19   0.981   2.904   1.319  0.1982  0.9930  0.3545
    3ARG     HA   20   0.991   3.012   1.303 -1.4215  0.7545 -0.6142
    3ARG     CB   21   1.128   2.855   1.321  0.0196  0.2096  0.1182
    3ARG    HB1   22   1.122   2.743   1.324 -3.7630 -1.8136 -0.3462
    3ARG    HB2   23   1.177   2.883   1.222 -0.8080 -1.2638 -0.7275
    3ARG     CG   24   1.224   2.906   1.429  0.0032 -0.1176 -0.7215
    3ARG    HG1   25   1.189   2.857   1.524  0.6202  0.3947 -0.2397
    3ARG    HG2   26   1.327   2.867   1.405 -2.2837  2.7081 -0.3587
    3ARG     CD   27   1.210   3.063   1.441 -0.5630 -0.3261  0.6765
    3ARG    HD1   28   1.281   3.100   1.358 -0.9178  1.9439 -0.0592
    3ARG    HD2   29   1.103   3.098   1.436  3.0838  1.2541 -0.0163
    3ARG     NE   30   1.258   3.084   1.583 -0.0753  0.2242 -0.0028
    3ARG     HE   31   1.269   3.001   1.645  0.4741  0.2912  2.9225
    3ARG     CZ   32   1.281   3.201   1.638 -0.6720  0.3905  0.2005
    3ARG    NH1   33   1.263   3.315   1.575 -0.6482 -1.0838  0.1248
    3ARG   HH11   34   1.242   3.317   1.477 -1.7831  0.9273  2.4859
    3ARG   HH12   35   1.279   3.401   1.627  0.8688  0.1011 -1.4162
    3ARG    NH2   36   1.313   3.199   1.765  0.1118  0.1655  0.0069
    3ARG   HH21   37   1.287   3.111   1.815  1.6128  0.7142 -2.8297
    3ARG   HH22   38   1.324   3.283   1.816  0.5214  3.5174  2.7699
    3ARG      C   39   0.915   2.848   1.189  0.1749 -0.2044  0.5459
    3ARG      O   40   0.969   2.866   1.080 -0.2243  0.5025 -0.0612
    4ASN      N   41   0.793   2.791   1.206  0.8120 -1.0053  0.0591
    4ASN     HN   42   0.758   2.755   1.294 -0.8233 -0.7069  3.2501
    4ASN     CA   43   0.711   2.771   1.082 -0.7053 -0.1879  0.5471
    4ASN     HA   44   0.774   2.788   0.991  0.4804 -3.3247 -0.2873
    4ASN     CB   45   0.647   2.641   1.086 -0.5783  0.5356 -0.7517
    4ASN    HB1   46   0.573   2.622   1.008  0.4539  0.9860  1.8584
    4ASN    HB2   47   0.587   2.629   1.179  2.4532  0.7182  0.4215
    4ASN     CG   48   0.740   2.529   1.074  0.4036  0.3054 -0.5247
    4ASN    OD1   49   0.791   2.469   1.169  0.6066  0.1446 -0.1173
    4ASN    ND2   50   0.746   2.458   0.957  0.2134 -0.1205  0.0141
    4ASN   HD21   51   0.837   2.429   0.926 -0.2749 -1.5057  0.5205
    4ASN   HD22   52   0.673   2.473   0.891  0.0330 -1.6764 -2.5601
    4ASN      C   53   0.604   2.870   1.084  0.1518  0.9123 -0.1212
    4ASN      O   54   0.490   2.852   1.041 -0.3394 -0.2805  0.3562
    5CT3      N   55   0.625   2.993   1.143  0.8133 -0.1103  0.3496
    5CT3     HN   56   0.717   3.015   1.190  1.5065 -2.5439  0.9104
    5CT3    CH3   57   0.521   3.091   1.150 -0.0299 -0.1329 -0.6874
    5CT3   HH31   58   0.447   3.054   1.220 -0.0293  1.8083  0.6167
    5CT3   HH32   59   0.561   3.184   1.180  2.1278  1.6094 -1.7108
    5CT3   HH33   60   0.467   3.109   1.060  1.6115  0.9863  1.4837
    6SOL     OW   61   1.942   1.858   0.585 -0.4704 -0.0880  0.9322
    6SOL    HW1   62   1.979   1.946   0.591  2.9056 -0.6621  0.8900
    6SOL    HW2   63   2.009   1.816   0.531  0.1515  1.5239 -1.1845
    7SOL     OW   64   0.692   2.910   0.199 -0.2230  0.4134 -0.0092
    7SOL    HW1   65   0.637   2.847   0.242 -0.7781  0.2568  1.6168
    7SOL    HW2   66   0.621   2.971   0.195  1.1886  0.6788  5.7358
    8SOL     OW   67   1.730   2.446   1.715 -0.4044  0.0311  0.0071
    8SOL    HW1   68   1.680   2.520   1.750 -2.6109  1.3846 -2.0650
    8SOL    HW2   69   1.771   2.502   1.647  0.8510  2.2667  0.7087
    9SOL     OW   70   0.877   0.419   0.291 -0.1971 -0.6020  0.6295
    9SOL    HW1   71   0.947   0.483   0.267  0.5417 -0.5857 -0.6626
    9SOL    HW2   72   0.800   0.484   0.308 -1.1898  0.8136 -0.2443
   10SOL     OW   73   0.348   1.053   2.389  0.2633  0.5479 -0.2383
   10SOL    HW1   74   0.350   1.120   2.319  2.7597 -0.1641 -1.3207
   10SOL    HW2   75   0.367   0.975   2.325  2.3230  3.3242 -1.5458
   11SOL     OW   76   0.004   2.795   1.379  0.2687  0.7033 -0.1814
   11SOL    HW1   77  -0.075   2.850   1.392 -0.1682  2.3314 -1.6384
   11SOL    HW2   78   0.051   2.810   1.469 -0.3632 -1.7942 -3.8841
   12SOL     OW   79   2.325   0.991   1.166  0.2650 -0.0055 -0.3736
   12SOL    HW1   80   2.299   0.898   1.196  2.4974 -1.6196 -1.7922
   12SOL    HW2   81   2.419   1.000   1.197 -1.6360  1.6514 -1.8294
   13SOL     OW   82   1.381   0.481   0.253  0.0922 -0.3665  0.2107
   13SOL    HW1   83   1.342   0.480   0.160  1.0185 -1.2442  2.1059
   13SOL    HW2   84   1.298   0.459   0.308 -1.3653 -0.9522  1.4466
   14SOL     OW   85   0.930   2.989   0.288 -0.1063 -0.2887  0.1730
   14SOL    HW1   86   0.835   2.974   0.279 -0.8825  2.4679 -3.9066
   14SOL    HW2   87   0.942   2.897   0.313  0.3782 -1.8914  2.2584
   15SOL     OW   88   0.294   1.125   2.642  0.1353  0.4063  0.2750
   15SOL    HW1   89   0.214   1.182   2.620  0.5417  0.5322 -0.3015
   15SOL    HW2   90   0.314   1.108   2.547 -0.5790  0.5591  0.9083
   16SOL     OW   91   1.255   1.325   0.880  0.5698 -0.2743 -0.4021
   16SOL    HW1   92   1.281   1.291   0.792 -1.3254  0.3255 -2.1347
   16SOL    HW2   93   1.266   1.246   0.931 -0.0429  0.3731 -2.2694
   17SOL     OW   94   1.208   1.691   2.432  0.2643 -0.3143  0.3550
   17SOL    HW1   95   1.239   1.668   2.521 -1.0634 -3.2689 -0.0315
   17SOL    HW2   96   1.295   1.718   2.394 -1.4012 -3.1014  1.3624
   18SOL     OW   97   0.194   0.504   0.500  0.5501 -0.0972 -0.6697
   18SOL    HW1   98   0.128   0.516   0.434  3.7926  3.9607 -1.1415
   18SOL    HW2   99   0.147   0.531   0.583  3.0175 -0.5691  1.5927
   19SOL     OW  100   1.266   0.770   0.626 -0.3391  0.4904  0.4475
   19SOL    HW1  101   1.314   0.816   0.557 -0.3110  1.2378  2.6922
   19SOL    HW2  102   1.177   0.769   0.591 -2.0145 -2.4250 -1.1581
   20SOL     OW  103   1.552   0.764   2.538 -0.3589  1.1622  0.2859
   20SOL    HW1  104   1.465   0.804   2.509 -3.6145  1.2414 -0.6341
   20SOL    HW2  105   1.524   0.671   2.523  0.2117 -0.2999  1.1078
   21SOL     OW  106   1.526   1.188   0.438  0.3244 -0.7608  0.3207
   21SOL    HW1  107   1.545   1.130   0.509  2.5081  0.0278 -0.0635
   21SOL    HW2  108   1.542   1.139   0.360  0.5239  0.3069 -3.0197
   22SOL     OW  109   0.188   1.632   0.379  0.1751  0.5828 -0.2504
   22SOL    HW1  110   0.181   1.540   0.419  3.1080  1.4070 -0.2723
   22SOL    HW2  111   0.093   1.656   0.385  0.4238  1.0342 -4.2129
   23SOL     OW  112   2.663   0.822   2.465  0.3996 -0.9567 -0.0810
   23SOL    HW1  113   2.698   0.740   2.495  0.0464  0.6304  1.6974
   23SOL    HW2  114   2.742   0.882   2.477 -0.0942  0.2139  0.7637
   24SOL     OW  115   1.978   0.249   0.128  0.1095 -0.2356  0.0456
   24SOL    HW1  116   1.955   0.245   0.216  1.6307 -0.1922 -2.2707
   24SOL    HW2  117   2.025   0.165   0.123 -1.8515 -1.3399 -3.0229
   25SOL     OW  118   1.549   0.258   1.439  0.3277 -0.2921  0.2251
   25SOL    HW1  119   1.620   0.292   1.388 -2.1558  1.1341 -3.0257
   25SOL    HW2  120   1.478   0.312   1.412 -1.2388 -0.5002 -1.1646
   26SOL     OW  121   1.083   0.836   1.685  0.4041 -0.7188  0.0285
   26SOL    HW1  122   1.032   0.771   1.742 -1.6498 -3.0413  1.6886
   26SOL    HW2  123   1.121   0.889   1.766  2.8954  0.2984  1.3123
   27SOL     OW  124   1.730   2.075   0.584 -0.2425  0.9194  0.2018
   27SOL    HW1  125   1.818   2.113   0.574 -1.9371  0.7362  2.9816
   27SOL    HW2  126   1.758   1.984   0.585  0.8548  0.2072 -1.1624
   28SOL     OW  127   0.354   2.680   1.214  0.2298 -0.4213 -0.5040
   28SOL    HW1  128   0.398   2.736   1.274 -2.4452 -2.8117 -1.3992
   28SOL    HW2  129   0.361   2.745   1.145  3.1935 -0.7947  2.3557
   29SOL     OW  130   2.733   2.025   1.099  0.2210  0.2739  0.4173
   29SOL    HW1  131   2.693   1.979   1.019  0.6221  2.3479  1.8012
   29SOL    HW2  132   2.808   2.056   1.056 -0.9411 -0.7207  1.9102
   30SOL     OW  133   2.245   2.136   0.005  0.6890  0.4163  0.6498
   30SOL    HW1  134   2.144   2.121  -0.015 -1.6580 -1.9393  0.8541
   30SOL    HW2  135   2.269   2.215  -0.036  0.9167 -2.1287  2.2584
   31SOL     OW  136   0.482   2.264   2.520 -0.2390  0.5405  1.6924
   31SOL    HW1  137   0.401   2.236   2.570  0.2597 -0.2763  1.8324
   31SOL    HW2  138   0.507   2.363   2.546  1.2753 -1.5602  3.0191
   32SOL     OW  139   1.165   2.987   1.915 -0.1929 -0.2937  0.7886
   32SOL    HW1  140   1.210   3.015   1.991 -3.9437 -2.1202 -1.0155
   32SOL    HW2  141   1.079   2.954   1.961  1.7574 -0.6622  0.2097
   33SOL     OW  142   2.231   0.485   1.109  0.7473 -0.3910 -0.0831
   33SOL    HW1  143   2.260   0.435   1.183 -1.4233  0.5287  1.1260
   33SOL    HW2  144   2.278   0.449   1.030  0.2120  0.1176 -3.0287
   34SOL     OW  145   1.530   0.046   0.632  0.2042  0.1883  0.2082
   34SOL    HW1  146   1.436   0.021   0.628 -0.3056  0.7603 -0.6309
   34SOL    HW2  147   1.529   0.114   0.561  2.5727  1.5474 -2.2130
   35SOL     OW  148   0.438   0.769   2.910  0.4125 -0.4742  0.2286
   35SOL    HW1  149   0.514   0.750   2.851 -2.1824 -0.5316  2.1976
   35SOL    HW2  150   0.397   0.827   2.852  2.2245 -4.8704 -0.9562
   36SOL     OW  151   1.387   0.337   1.103 -0.7820 -0.3964 -0.0851
   36SOL    HW1  152   1.466   0.333   1.050  0.2118 -1.0298 -1.3877
   36SOL    HW2  153   1.341   0.413   1.065 -1.2854  0.8091 -2.4337
   37SOL     OW  154   2.719   2.347   2.300 -0.4054 -0.1267 -0.4134
   37SOL    HW1  155   2.777   2.379   2.227  1.4401  3.6566  1.1255
   37SOL    HW2  156   2.739   2.415   2.365  2.6293  1.2409 -0.8905
   38SOL     OW  157   0.595   2.293   2.884  0.2427 -0.3530 -0.3997
   38SOL    HW1  158   0.620   2.257   2.797 -2.8289  1.2903 -0.1679
   38SOL    HW2  159   0.505   2.331   2.868 -1.0062  0.2458  0.2092
   39SOL     OW  160   1.612   2.244   2.179 -0.1727 -0.3930 -0.3348
   39SOL    HW1  161   1.531   2.232   2.126  0.4000 -3.6553  1.0627
   39SOL    HW2  162   1.650   2.334   2.153 -0.3551  1.7028 -2.3025
   40SOL     OW  163   0.235   1.456   1.624  0.2115  0.6081  0.6466
   40SOL    HW1  164   0.306   1.430   1.559  1.1166 -3.7851 -0.8005
   40SOL    HW2  165   0.198   1.380   1.660 -1.1223  4.3153  1.0491
   41SOL     OW  166   2.399   2.258   0.363 -0.3283  0.6561 -0.4080
   41SOL    HW1  167   2.465   2.199   0.330 -1.7264 -0.6126 -1.5804
   41SOL    HW2  168   2.454   2.334   0.375 -1.9541 -0.3751  3.2814
   42SOL     OW  169   1.551   1.313   1.989  0.5358  0.5883 -0.7532
   42SOL    HW1  170   1.503   1.246   2.037  1.2810  2.4815 -0.7635
   42SOL    HW2  171   1.574   1.379   2.060  2.3915  1.1428  1.9733
   43SOL     OW  172   0.206   2.148   0.309  0.1493 -0.5871  0.8845
   43SOL    HW1  173   0.255   2.212   0.355  1.3275  0.8490 -1.6383
   43SOL    HW2  174   0.153   2.209   0.250 -1.9670  1.4023 -0.2382
   44SOL     OW  175   2.328   0.591   1.697  0.2222  0.1627 -0.1577
   44SOL    HW1  176   2.269   0.578   1.769  0.8094  1.5618  0.8800
   44SOL    HW2  177   2.404   0.634   1.742  0.1496  0.8955 -0.6940
   45SOL     OW  178   2.924   2.082   0.375 -0.3115  0.5309 -0.6481
   45SOL    HW1  179   2.849   2.093   0.312  2.0746 -0.3050  0.7198
   45SOL    HW2  180   3.000   2.085   0.320  4.7200  3.2211  2.7062
   46SOL     OW  181   1.931   1.646   0.217  0.0976 -0.3558 -0.2186
   46SOL    HW1  182   1.883   1.619   0.300 -0.0476 -1.2647 -2.5320
   46SOL    HW2  183   1.928   1.555   0.174  1.8478 -1.1348 -0.3524
   47SOL     OW  184   2.815   0.664   1.166 -0.7940 -0.3222  0.3570
   47SOL    HW1  185   2.731   0.625   1.202 -0.6482  0.3380 -0.2267
   47SOL    HW2  186   2.877   0.615   1.218  2.7860  0.4278  0.1714
   48SOL     OW  187   0.618   2.637   0.686 -0.5090  0.3940 -0.5664
   48SOL    HW1  188   0.604   2.537   0.674 -0.3734  1.1383 -1.4889
   48SOL    HW2  189   0.527   2.655   0.666 -3.4974 -1.0393  0.8598
   49SOL     OW  190   2.754   1.728   0.170 -0.3615  0.1465  0.3497
   49SOL    HW1  191   2.779   1.648   0.118  0.4598  0.0025  1.8389
   49SOL    HW2  192   2.666   1.735   0.137  2.1920 -0.3167  1.5121
   50SOL     OW  193   0.575   2.004   0.869 -0.5918  0.4685  0.3441
   50SOL    HW1  194   0.489   2.051   0.869  1.1271 -0.6282  2.9676
   50SOL    HW2  195   0.555   1.924   0.814 -1.1345 -0.8440 -2.2187
   51SOL     OW  196   0.997   1.734   1.811  0.8319 -0.2591 -0.1215
   51SOL    HW1  197   0.939   1.800   1.860 -1.7656  1.2620  3.6656
   51SOL    HW2  198   0.952   1.647   1.821  4.1241 -1.2384 -1.6578
   52SOL     OW  199   0.778   1.858   1.911 -0.1362 -1.0749 -0.4532
   52SOL    HW1  200   0.770   1.956   1.932  1.5487  2.5283 -0.5320
   52SOL    HW2  201   0.760   1.866   1.815 -0.7012  2.9468 -0.9305
   53SOL     OW  202   2.049   2.656   2.849 -0.1004  0.3851  0.2430
   53SOL    HW1  203   1.970   2.627   2.893 -0.2526  2.6137 -0.4486
   53SOL    HW2  204   2.115   2.609   2.907  3.1057  0.6806  1.3427
   54SOL     OW  205   2.439   0.948   1.505  0.0028  0.1524 -0.3031
   54SOL    HW1  206   2.485   0.934   1.418 -0.1524 -0.0761 -0.3133
   54SOL    HW2  207   2.497   1.018   1.532 -0.7437 -2.6066 -0.4793
   55SOL     OW  208   2.598   1.562   1.426  0.2995 -0.5083  0.3135
   55SOL    HW1  209   2.511   1.591   1.387  0.2173  0.4770 -0.4674
   55SOL    HW2  210   2.603   1.621   1.499 -0.3188 -2.3644  0.0876
   56SOL     OW  211   1.412   2.148   1.588  0.1017 -0.7612 -0.4986
   56SOL    HW1  212   1.370   2.062   1.582 -0.9396 -0.6266  3.7919
   56SOL    HW2  213   1.463   2.135   1.672 -1.2047  1.8808 -2.6117
   57SOL     OW  214   1.907   1.981   0.234  0.8102  0.3692 -0.2835
   57SOL    HW1  215   1.924   2.076   0.216  1.0253 -1.7774 -0.6840
   57SOL    HW2  216   1.830   1.977   0.290 -3.4759 -0.0947 -2.9182
   58SOL     OW  217   0.652   1.385   1.613 -0.3354 -0.6608 -0.2455
   58SOL    HW1  218   0.665   1.472   1.655  0.9423 -0.3042 -4.2579
   58SOL    HW2  219   0.590   1.413   1.545 -2.6350  2.1493 -0.0454
   59SOL     OW  220   2.573   0.949   1.259 -0.1913 -0.1803  0.0140
   59SOL    HW1  221   2.630   0.873   1.229  0.4748 -1.8895 -2.0397
   59SOL    HW2  222   2.624   1.024   1.224 -1.5306  2.0307 -0.2694
   60SOL     OW  223   1.188   1.734   2.048 -0.2364  1.0203 -1.3245
   60SOL    HW1  224   1.119   1.737   1.985 -2.0504  1.3589  3.1764
   60SOL    HW2  225   1.137   1.742   2.130  0.1436  0.3840  0.9394
   61SOL     OW  226   1.540   2.448   2.595 -0.4521 -0.1409 -0.2431
   61SOL    HW1  227   1.572   2.382   2.528 -0.6046  0.0659  0.2563
   61SOL    HW2  228   1.579   2.527   2.559 -0.4510 -0.2972 -2.0082
   62SOL     OW  229   2.739   0.028   1.120  0.5231  0.1219 -0.1126
   62SOL    HW1  230   2.751   0.036   1.028 -1.3504 -0.6225  2.6740
   62SOL    HW2  231   2.721  -0.070   1.128  0.8775  1.2672  4.1557
   63SOL     OW  232   2.145   1.162   0.124  0.2779 -0.3992  0.1209
   63SOL    HW1  233   2.127   1.096   0.044 -1.1356 -1.9393 -2.7140
   63SOL    HW2  234   2.207   1.221   0.080  1.1551 -2.0208  0.5859
   64SOL     OW  235   0.200   2.355   0.622 -0.2788  0.2033  0.4607
   64SOL    HW1  236   0.113   2.378   0.587  2.2931 -1.1574 -0.6786
   64SOL    HW2  237   0.194   2.396   0.703  0.0951  1.5306 -0.4347
   65SOL     OW  238   0.340   0.817   2.598  0.1822  0.9259  0.2459
   65SOL    HW1  239   0.254   0.857   2.606  3.3215 -1.0383  0.6123
   65SOL    HW2  240   0.374   0.866   2.520 -6.2364  1.3071  2.6647
   66SOL     OW  241   1.024   1.636   1.251  0.3665  0.3950  0.4723
   66SOL    HW1  242   0.972   1.556   1.251  2.1021  0.5885  2.6707
   66SOL    HW2  243   1.098   1.614   1.302  2.7089  1.0119  0.5980
   67SOL     OW  244   1.623   0.445   0.061 -0.5625 -0.5737 -0.0699
   67SOL    HW1  245   1.654   0.449   0.151  0.6427  0.4324 -0.0553
   67SOL    HW2  246   1.533   0.444   0.086  1.4602 -4.5504  2.5124
   68SOL     OW  247   2.505   2.962   0.182  0.5682  0.0994  0.4888
   68SOL    HW1  248   2.422   3.011   0.165 -1.0477  3.4369 -0.8357
   68SOL    HW2  249   2.575   3.027   0.168  2.8206 -1.8129 -1.1326
   69SOL     OW  250   1.725   0.226   2.665 -0.4739 -0.3133  0.4003
   69SOL    HW1  251   1.657   0.197   2.732 -0.1824 -4.1156 -1.2215
   69SOL    HW2  252   1.809   0.236   2.718  0.5522  0.9615  4.9765
   70SOL     OW  253   1.768   2.787   0.840  0.1827 -0.3624 -0.1603
   70SOL    HW1  254   1.788   2.712   0.889  0.4814 -1.6702  2.3830
   70SOL    HW2  255   1.668   2.782   0.844 -1.8937  2.0334  1.4819
   71SOL     OW  256   1.828   2.705   0.063  0.3394 -0.9607 -0.3814
   71SOL    HW1  257   1.774   2.736   0.131  0.1691  1.8110 -0.6538
   71SOL    HW2  258   1.834   2.787   0.004 -3.6130 -1.7731 -1.4966
   72SOL     OW  259   2.819   0.014   2.822 -0.7461 -0.3182 -0.5181
   72SOL    HW1  260   2.756  -0.058   2.822 -0.6782 -1.2268 -0.9579
   72SOL    HW2  261   2.855   0.000   2.732  1.7774  2.6498  0.8621
   73SOL     OW  262   1.370   2.175   2.043  0.5293 -0.0035 -0.4321
   73SOL    HW1  263   1.397   2.128   1.953  2.7404 -1.4140 -0.8757
   73SOL    HW2  264   1.329   2.240   1.989 -2.5533 -2.1322  2.3830
   74SOL     OW  265   2.478   2.555   2.525  0.3684 -0.0501 -0.2487
   74SOL    HW1  266   2.442   2.634   2.488 -0.0227  1.9824 -1.5169
   74SOL    HW2  267   2.423   2.491   2.476 -0.2855  0.2504  1.8766
   75SOL     OW  268   0.305   1.711   1.577  0.4679 -0.0064 -0.4568
   75SOL    HW1  269   0.284   1.621   1.596 -1.4341  2.4002 -1.1629
   75SOL    HW2  270   0.350   1.702   1.492 -0.9517 -3.3389 -0.2274
   76SOL     OW  271   0.412   2.010   2.192  0.2676 -0.1165 -0.8076
   76SOL    HW1  272   0.350   2.070   2.244  1.4774 -2.5556  1.2238
   76SOL    HW2  273   0.486   2.011   2.261  1.5926  0.8715 -1.9180
   77SOL     OW  274   1.765   1.960   2.468  0.2416 -0.9832  0.6971
   77SOL    HW1  275   1.819   1.886   2.445 -3.1199  2.2962  0.3909
   77SOL    HW2  276   1.710   1.947   2.388  1.1555 -1.7251 -0.0781
   78SOL     OW  277   2.968   1.488   0.673  0.7626  0.3117 -0.4064
   78SOL    HW1  278   2.963   1.499   0.768  2.8945  0.4541 -0.3562
   78SOL    HW2  279   3.038   1.421   0.671  3.3545 -2.2822 -0.9907
   79SOL     OW  280   0.742   0.472   2.282 -0.4052 -0.5523  0.4978
   79SOL    HW1  281   0.786   0.479   2.374 -3.6169 -3.0311  2.2217
   79SOL    HW2  282   0.797   0.544   2.238  2.2595  1.1393 -2.0672
   80SOL     OW  283   0.610   2.780   2.004 -0.1000 -0.4050 -0.6949
   80SOL    HW1  284   0.577   2.837   2.071 -0.4153  1.1879 -2.8155
   80SOL    HW2  285   0.593   2.839   1.932 -1.3879  0.9127 -0.4087
   81SOL     OW  286   2.149   1.816   1.306  0.1202  0.0195 -0.6693
   81SOL    HW1  287   2.080   1.884   1.306  2.8705 -0.3718 -0.6923
   81SOL    HW2  288   2.133   1.786   1.390 -3.2387 -2.3497 -0.0976
   82SOL     OW  289   0.600   2.856   2.818 -0.0968  0.1079  0.2386
   82SOL    HW1  290   0.602   2.888   2.731 -0.0929 -0.9927  1.1288
   82SOL    HW2  291   0.645   2.764   2.805 -3.0498  0.1408  0.7321
   83SOL     OW  292   0.072   2.774   0.997  0.1420  0.3221  0.2003
   83SOL    HW1  293   0.009   2.848   1.010  0.3895 -0.5665 -0.4917
   83SOL    HW2  294   0.032   2.691   1.037 -0.7348 -1.7724  0.2063
   84SOL     OW  295   1.344   2.596   1.107 -0.6105  0.1937  0.7931
   84SOL    HW1  296   1.275   2.544   1.149  0.9022  2.2683  0.1087
   84SOL    HW2  297   1.325   2.594   1.009  0.3151  2.1736 -2.3811
   85SOL     OW  298   1.796   0.003   1.231 -1.0021 -0.6628 -0.2557
   85SOL    HW1  299   1.813  -0.081   1.268  0.8264 -0.5178  0.7267
   85SOL    HW2  300   1.710  -0.017   1.193 -0.5492 -2.4131  0.8916
   86SOL     OW  301   2.661   1.190   0.399 -0.4582 -0.6258  0.5098
   86SOL    HW1  302   2.593   1.155   0.338  2.0965 -1.2730  1.1908
   86SOL    HW2  303   2.637   1.283   0.410 -1.3589 -0.5677  3.7909
   87SOL     OW  304   0.635   1.526   2.024 -1.1741  0.4104  0.2778
   87SOL    HW1  305   0.681   1.595   2.069 -1.5306  0.7910 -0.9607
   87SOL    HW2  306   0.569   1.594   1.999  1.8166 -4.1444 -0.5998
   88SOL     OW  307   0.466   0.043   0.219 -0.6810 -0.3051  0.6337
   88SOL    HW1  308   0.374   0.046   0.241 -1.6294  1.2525 -2.7527
   88SOL    HW2  309   0.465   0.058   0.125  2.6869 -0.5776 -0.7275
   89SOL     OW  310   2.651   2.449   2.697  0.0710  0.0556  0.5621
   89SOL    HW1  311   2.587   2.490   2.629 -1.4021 -1.2900 -2.0026
   89SOL    HW2  312   2.659   2.532   2.746  0.4442 -1.1668  0.7056
   90SOL     OW  313   2.701   2.795   1.946 -0.2985 -0.5798 -0.0710
   90SOL    HW1  314   2.680   2.736   1.874 -2.7789 -0.3843  2.6460
   90SOL    HW2  315   2.797   2.774   1.949  0.2263 -1.7805  0.0986
   91SOL     OW  316   1.078   2.216   1.747 -0.0779 -0.2534 -0.3227
   91SOL    HW1  317   1.092   2.208   1.840  1.1636 -0.8121  0.0407
   91SOL    HW2  318   1.068   2.123   1.710  0.8557 -0.7111  1.6909
   92SOL     OW  319   2.948   2.990   2.469 -0.3955 -0.7936  0.3853
   92SOL    HW1  320   3.012   2.963   2.535 -2.2882  1.6371  4.4143
   92SOL    HW2  321   2.984   2.957   2.382  1.5326  0.2274 -1.0009
   93SOL     OW  322   1.498   2.956   2.861 -0.9458  0.2710 -0.1995
   93SOL    HW1  323   1.511   3.036   2.913 -0.7416  1.3472  1.6385
   93SOL    HW2  324   1.403   2.948   2.875 -2.5598 -0.1137 -1.7101
   94SOL     OW  325   2.337   0.531   2.833  0.6705  0.3735  0.0422
   94SOL    HW1  326   2.303   0.533   2.746 -1.2227  1.6423  2.3336
   94SOL    HW2  327   2.254   0.507   2.878 -3.5029 -0.5672  1.1880
   95SOL     OW  328   1.079   2.145   2.668 -0.3747 -0.6722 -0.7561
   95SOL    HW1  329   1.039   2.144   2.753  2.8662 -2.0944  1.7633
   95SOL    HW2  330   1.148   2.081   2.703 -0.1607 -0.3260 -0.0950
   96SOL     OW  331   1.744   1.527   0.863 -0.4467 -0.3479  0.0089
   96SOL    HW1  332   1.689   1.469   0.813  0.8303 -0.3726 -0.3022
   96SOL    HW2  333   1.685   1.611   0.866  0.6139  0.2922  2.5008
   97SOL     OW  334   2.931   1.749   0.362  0.8375 -0.9121  0.2224
   97SOL    HW1  335   2.933   1.842   0.391  0.2742 -0.0226 -1.1755
   97SOL    HW2  336   2.860   1.759   0.294  1.2111  3.9821  0.6717
   98SOL     OW  337   1.872   2.645   1.448  0.1378 -0.0388  0.0904
   98SOL    HW1  338   1.928   2.704   1.391 -0.5278 -1.8326 -1.0927
   98SOL    HW2  339   1.785   2.681   1.431 -0.9811  2.5379  3.0587
   99SOL     OW  340   2.378   0.607   0.450  0.2954  0.2324 -0.7151
   99SOL    HW1  341   2.402   0.574   0.359  0.6624 -0.9052 -0.4857
   99SOL    HW2  342   2.393   0.703   0.436  1.0507 -1.5384 -0.0275
  100SOL     OW  343   1.304   2.554   0.835 -0.2096  0.2922 -0.3266
  100SOL    HW1  344   1.324   2.457   0.839  0.0823  2.2297 -1.6980
  100SOL    HW2  345   1.224   2.541   0.778 -4.4319 -1.2746 -1.5205
  101SOL     OW  346   1.634   0.935   2.094 -0.0762 -1.1889 -0.7096
  101SOL    HW1  347   1.588   0.980   2.170 -2.9220 -1.3929 -1.9519
  101SOL    HW2  348   1.689   0.883   2.147 -0.0462  0.0937  2.5584
  102SOL     OW  349   1.005   0.676   1.302  0.8402 -0.2158 -0.0450
  102SOL    HW1  350   1.024   0.595   1.250  1.1288 -0.3668  1.2272
  102SOL    HW2  351   1.082   0.733   1.285  1.0732  0.0551 -0.4628
  103SOL     OW  352   2.348   2.290   0.746 -0.4739  0.1560 -0.3272
  103SOL    HW1  353   2.308   2.293   0.831 -0.5703  3.6792  1.4473
  103SOL    HW2  354   2.343   2.189   0.734 -1.9384 -2.4131  2.2541
  104SOL     OW  355   1.221   0.819   1.229 -0.2233  0.1900 -0.3223
  104SOL    HW1  356   1.289   0.810   1.300 -0.9569  1.1897  0.1735
  104SOL    HW2  357   1.283   0.817   1.150 -0.3952  0.6539 -0.8538
  105SOL     OW  358   1.650   2.718   0.332 -0.0116  0.2782 -0.4493
  105SOL    HW1  359   1.697   2.686   0.414  0.3334 -1.7669 -2.6010
  105SOL    HW2  360   1.570   2.757   0.373 -1.6300 -0.0202  0.3094
  106SOL     OW  361   2.810   2.128   0.104  0.3374  1.2718  0.6073
  106SOL    HW1  362   2.848   2.052   0.058 -3.3452 -1.0038  0.7778
  106SOL    HW2  363   2.721   2.088   0.088  2.2135 -1.2196  0.6543
  107SOL     OW  364   0.345   1.254   2.857 -0.5113  0.5456  0.5620
  107SOL    HW1  365   0.347   1.237   2.761 -0.2191  1.7688 -0.9564
  107SOL    HW2  366   0.276   1.198   2.884  0.2097  0.8598  1.6336
  108SOL     OW  367   2.278   1.181   0.578  0.8655 -0.5881 -1.0609
  108SOL    HW1  368   2.357   1.123   0.593  2.2929 -1.4088  0.9232
  108SOL    HW2  369   2.317   1.268   0.571  0.0984 -1.6542  1.0718
  109SOL     OW  370   0.489   0.779   1.162  0.3758  0.1882  0.5062
  109SOL    HW1  371   0.477   0.871   1.193 -1.4085  4.3440 -2.7063
  109SOL    HW2  372   0.591   0.772   1.163 -1.7963  1.2149 -3.8868
  110SOL     OW  373   0.252   2.541   1.720 -0.1124 -0.0425 -0.8975
  110SOL    HW1  374   0.270   2.445   1.726  1.4671  1.0050 -4.6526
  110SOL    HW2  375   0.225   2.555   1.628 -0.6405 -0.8928  0.8813
  111SOL     OW  376   2.501   0.190   0.377  0.3030  0.1945  0.0611
  111SOL    HW1  377   2.490   0.109   0.437  0.6932 -2.6043 -0.9010
  111SOL    HW2  378   2.588   0.221   0.403 -1.3263  0.8702 -3.5555
  112SOL     OW  379   2.889   2.780   2.944 -0.0137  0.1739 -0.4051
  112SOL    HW1  380   2.890   2.790   3.043 -1.1848 -2.1944  1.2993
  112SOL    HW2  381   2.863   2.872   2.932  1.4034  1.3018  1.6571
  113SOL     OW  382   0.473   1.329   0.374  0.2808  0.2721 -0.0970
  113SOL    HW1  383   0.454   1.231   0.361 -3.8246 -0.2889  2.5445
  113SOL    HW2  384   0.517   1.338   0.291 -0.4836 -0.2485  1.5372
  114SOL     OW  385   0.779   0.808   2.212  0.5163 -0.4425  0.4231
  114SOL    HW1  386   0.681   0.799   2.213 -0.6854  3.9580  1.2529
  114SOL    HW2  387   0.801   0.817   2.309 -0.0133 -2.7405  2.3861
  115SOL     OW  388   0.470   1.301   1.288  0.5250  0.1028 -0.8774
  115SOL    HW1  389   0.561   1.277   1.257  1.6369  0.0922 -1.8788
  115SOL    HW2  390   0.415   1.248   1.223  2.3269 -0.1111  0.5186
  116SOL     OW  391   2.577   0.359   2.703 -0.5477 -0.0378 -0.5660
  116SOL    HW1  392   2.486   0.389   2.711  1.0777  5.2655 -3.0782
  116SOL    HW2  393   2.590   0.426   2.626  0.0325 -0.4115  0.9639
  117SOL     OW  394   1.700   2.307   2.444  0.7793  0.2196  0.1455
  117SOL    HW1  395   1.692   2.304   2.352 -1.3658  1.2226 -0.2043
  117SOL    HW2  396   1.779   2.244   2.464  3.1326 -1.1182 -2.3654
  118SOL     OW  397   2.632   2.838   2.753 -0.6661  0.5463 -0.0681
  118SOL    HW1  398   2.540   2.835   2.784  1.0513 -0.8561 -1.8705
  118SOL    HW2  399   2.658   2.751   2.794 -0.6210 -1.5004  0.6294
  119SOL     OW  400   1.887   2.568   1.098 -0.4400 -0.5794 -0.5702
  119SOL    HW1  401   1.967   2.611   1.129  1.6029  0.2956 -5.2100
  119SOL    HW2  402   1.916   2.482   1.130 -1.8610  1.6730  2.4161
  120SOL     OW  403   2.673   2.735   1.637 -0.3619  0.1732 -0.0143
  120SOL    HW1  404   2.614   2.679   1.695 -0.1115 -3.2970 -0.9709
  120SOL    HW2  405   2.741   2.672   1.600 -0.2336 -2.6037  0.6651
  121SOL     OW  406   1.995   0.908   0.986 -0.0405  0.2392 -0.1792
  121SOL    HW1  407   1.992   1.001   0.984  1.9902  0.3470  2.5676
  121SOL    HW2  408   2.092   0.897   0.982 -1.5660 -0.9946 -1.5061
  122SOL     OW  409   0.522   1.068   0.593 -0.5777  0.2778  0.0153
  122SOL    HW1  410   0.439   1.085   0.568 -1.1484  0.8129  0.9335
  122SOL    HW2  411   0.555   1.155   0.606 -0.0990  1.1398 -0.4115
  123SOL     OW  412   2.111   0.450   1.941 -0.0268  0.0754  0.0343
  123SOL    HW1  413   2.042   0.409   1.998 -1.0575  0.6262  2.6808
  123SOL    HW2  414   2.118   0.548   1.979 -0.3625  0.0009 -0.1153
  124SOL     OW  415   2.576   1.426   0.366 -0.5419 -1.3746  0.6071
  124SOL    HW1  416   2.488   1.466   0.350  3.8707  0.1137 -4.2295
  124SOL    HW2  417   2.614   1.498   0.423  1.3285  0.9319  1.6003
  125SOL     OW  418   2.594   0.188   2.918 -0.2091  0.1475  0.2579
  125SOL    HW1  419   2.675   0.142   2.913  0.1655 -1.5709 -2.1106
  125SOL    HW2  420   2.607   0.256   2.845 -0.7260  2.2168 -1.6991
  126SOL     OW  421   0.986   1.333   0.815  0.3664  0.3153 -0.0656
  126SOL    HW1  422   1.027   1.331   0.723 -2.8981  0.1943 -2.0218
  126SOL    HW2  423   1.072   1.306   0.854  1.8843 -1.2281 -0.1493
  127SOL     OW  424   2.127   2.984   1.670  0.2213 -0.2739  0.4962
  127SOL    HW1  425   2.151   3.039   1.598  0.6795 -1.0959  0.5576
  127SOL    HW2  426   2.208   2.940   1.704 -3.4958 -0.3243 -0.2270
  128SOL     OW  427   1.901   2.410   0.449 -0.5722  0.1804  0.1162
  128SOL    HW1  428   1.853   2.492   0.481 -1.6690 -0.8758  0.8675
  128SOL    HW2  429   1.996   2.426   0.440 -1.4098 -2.6328 -1.3154
  129SOL     OW  430   2.056   0.649   0.183 -0.2108 -0.0060 -0.2646
  129SOL    HW1  431   2.113   0.585   0.141 -3.2555 -0.9398  1.7467
  129SOL    HW2  432   1.979   0.643   0.124  1.3014 -0.0122  1.4466
  130SOL     OW  433   0.493   1.625   0.837 -0.0898 -0.0678 -0.2886
  130SOL    HW1  434   0.519   1.667   0.750 -1.6597 -0.2389 -4.6314
  130SOL    HW2  435   0.545   1.670   0.909 -1.0068 -1.8058 -1.4039
  131SOL     OW  436   1.075   2.481   1.229  0.0753  0.5447  0.1431
  131SOL    HW1  437   0.983   2.476   1.204 -0.8688  1.8366  3.6963
  131SOL    HW2  438   1.061   2.500   1.319  1.9392 -0.0304  0.6410
  132SOL     OW  439   2.903   1.884   1.267  0.3321 -1.2177  0.7561
  132SOL    HW1  440   2.880   1.788   1.256  0.1815  0.0007 -0.9446
  132SOL    HW2  441   2.827   1.919   1.219  1.0664  0.6396 -1.9944
  133SOL     OW  442   1.885   2.910   0.608 -0.2989 -0.2122 -0.0121
  133SOL    HW1  443   1.847   2.925   0.692 -0.4730  2.6406 -2.8018
  133SOL    HW2  444   1.974   2.952   0.612 -1.8694 -0.2010  0.2862
  134SOL     OW  445   2.734   0.587   2.185 -0.0103  0.4656  0.0446
  134SOL    HW1  446   2.803   0.560   2.129  1.3459  0.7119  2.6263
  134SOL    HW2  447   2.728   0.681   2.173  2.3754  0.3798  2.1636
  135SOL     OW  448   1.255   1.715   0.012 -0.1075  0.6173 -0.4591
  135SOL    HW1  449   1.244   1.753   0.101  0.2839 -0.1897  0.1247
  135SOL    HW2  450   1.248   1.627   0.049 -0.7013 -2.7201  1.9881
  136SOL     OW  451   1.509   1.437   0.162  0.0800  0.0859 -0.5350
  136SOL    HW1  452   1.545   1.445   0.069 -1.0963 -1.3332  0.1228
  136SOL    HW2  453   1.587   1.379   0.188 -0.9652  3.4230 -0.5024
  137SOL     OW  454   1.550   1.221   2.845  0.2863 -0.3420 -0.3834
  137SOL    HW1  455   1.513   1.201   2.935  0.4881  1.4443 -2.2694
  137SOL    HW2  456   1.481   1.187   2.785  3.9913 -0.1307  1.4397
  138SOL     OW  457   2.194   2.831   0.607 -0.0586 -0.4617  0.2639
  138SOL    HW1  458   2.171   2.753   0.658  1.6058  0.5794 -1.3855
  138SOL    HW2  459   2.248   2.883   0.670 -0.0630 -0.9760 -1.1375
  139SOL     OW  460   2.676   2.175   2.663 -0.1604  0.2374  1.4364
  139SOL    HW1  461   2.673   2.275   2.672  2.5549 -2.4694  0.4642
  139SOL    HW2  462   2.668   2.149   2.754 -0.8430 -3.0869  1.7559
  140SOL     OW  463   2.588   1.406   1.134  0.1538  0.5564  0.5049
  140SOL    HW1  464   2.517   1.385   1.063  1.4628 -0.8333 -1.1276
  140SOL    HW2  465   2.539   1.395   1.220  0.8008  1.6983 -0.7420
  141SOL     OW  466   2.019   0.606   1.375 -0.1352 -0.7922 -0.2855
  141SOL    HW1  467   2.014   0.558   1.459  0.6049 -2.0916  1.7000
  141SOL    HW2  468   2.074   0.679   1.401 -0.2693 -0.7929 -1.5580
  142SOL     OW  469   0.605   2.491   2.625  0.2672 -0.6267  0.0885
  142SOL    HW1  470   0.664   2.461   2.551 -1.9813 -2.0415 -0.5243
  142SOL    HW2  471   0.672   2.528   2.683  0.3201 -3.8719  1.6235
  143SOL     OW  472   1.287   2.650   1.882 -0.0579 -0.3033  0.3165
  143SOL    HW1  473   1.340   2.561   1.893 -0.4127  0.1817  1.0550
  143SOL    HW2  474   1.219   2.647   1.954  2.3100  3.6047 -0.1497
  144SOL     OW  475   0.207   2.600   2.663 -0.3090 -0.3355 -0.4084
  144SOL    HW1  476   0.142   2.539   2.710  2.6465  1.9241  3.4789
  144SOL    HW2  477   0.185   2.677   2.721 -2.8926  1.3380  1.9256
  145SOL     OW  478   1.177   0.993   2.198 -0.1967  0.0012  0.5700
  145SOL    HW1  479   1.128   1.022   2.273  5.2648  1.1219 -2.9551
  145SOL    HW2  480   1.105   0.936   2.163  1.1034  0.4630  0.1654
  146SOL     OW  481   0.946   0.504   1.570  0.6980 -0.9368 -1.0396
  146SOL    HW1  482   0.866   0.562   1.563  0.7392  0.4823 -0.6999
  146SOL    HW2  483   0.997   0.541   1.496  0.8033  1.9586  0.9921
  147SOL     OW  484   2.464   1.254   1.761  0.0638  0.1130  0.0488
  147SOL    HW1  485   2.480   1.300   1.849  0.5731  1.3063  0.3800
  147SOL    HW2  486   2.384   1.200   1.778  1.8183  1.5920 -0.3189
  148SOL     OW  487   2.163   1.418   2.106 -0.5332  0.3727  0.1107
  148SOL    HW1  488   2.182   1.395   2.198  0.7394  0.7825 -4.0183
  148SOL    HW2  489   2.107   1.345   2.072  1.0670 -1.6348  0.3821
  149SOL     OW  490   2.131   0.712   1.998  0.2099  0.2578 -0.1048
  149SOL    HW1  491   2.075   0.751   2.070 -1.8422  0.5059  2.4858
  149SOL    HW2  492   2.154   0.790   1.950 -0.1652 -0.8954  3.1908
  150SOL     OW  493   2.203   2.067   0.311 -0.5211  0.3336 -0.5237
  150SOL    HW1  494   2.269   2.134   0.336  2.3795 -2.1065 -1.5670
  150SOL    HW2  495   2.203   2.086   0.214  0.9250  1.6960  1.5344
  151SOL     OW  496   1.996   2.158   2.873 -0.7135  0.3362 -0.6215
  151SOL    HW1  497   1.922   2.223   2.889  1.9593  0.9722  0.9550
  151SOL    HW2  498   1.977   2.103   2.792 -0.9492 -1.0543 -0.4722
  152SOL     OW  499   1.254   0.569   1.021  0.1861  0.1268  0.0331
  152SOL    HW1  500   1.303   0.649   0.991 -0.7212 -0.7944  0.7957
  152SOL    HW2  501   1.165   0.596   1.023  1.0361 -2.4898  0.4285
  153SOL     OW  502   2.438   0.211   1.410  0.3453 -0.6224 -0.2508
  153SOL    HW1  503   2.366   0.275   1.409 -1.4196  0.9193 -0.3740
  153SOL    HW2  504   2.458   0.194   1.503  0.5068  0.8282 -2.1777
  154SOL     OW  505   2.523   1.728   1.674  0.3454 -0.8106 -0.1152
  154SOL    HW1  506   2.567   1.657   1.727 -1.1726 -0.8100  0.3161
  154SOL    HW2  507   2.438   1.692   1.701  1.2774  1.2277 -2.0504
  155SOL     OW  508   1.396   2.938   0.318  0.1139  0.1484  0.1151
  155SOL    HW1  509   1.361   3.029   0.332 -0.8770  4.5292  0.1511
  155SOL    HW2  510   1.348   2.908   0.251 -0.7706  0.2260 -1.3022
  156SOL     OW  511   1.936   0.784   2.163 -1.0127 -0.1396  0.1462
  156SOL    HW1  512   1.870   0.806   2.229 -0.2975  0.4470 -3.4143
  156SOL    HW2  513   1.894   0.703   2.117  0.6521 -0.5216 -0.6363
  157SOL     OW  514   2.490   1.001   2.595 -0.2182 -0.2964 -0.0580
  157SOL    HW1  515   2.507   0.953   2.682  1.8256  1.3735  0.1882
  157SOL    HW2  516   2.532   0.943   2.530  1.2286 -1.8840  0.4486
  158SOL     OW  517   0.243   0.776   2.080 -0.7173 -0.3620  0.4257
  158SOL    HW1  518   0.185   0.701   2.112  0.0732  0.8052 -0.6068
  158SOL    HW2  519   0.325   0.791   2.139 -1.4576 -0.2586 -0.3785
  159SOL     OW  520   2.752   0.246   0.377  0.1967  0.9235  0.2454
  159SOL    HW1  521   2.786   0.194   0.294  1.3616 -0.3412  0.0762
  159SOL    HW2  522   2.752   0.339   0.334  0.2436  3.6025  2.6073
  160SOL     OW  523   1.078   0.307   2.420  0.6397 -0.4644  0.2462
  160SOL    HW1  524   1.021   0.270   2.491  1.8249  2.8693 -2.2348
  160SOL    HW2  525   1.022   0.308   2.335  0.3783  1.7094  1.7888
  161SOL     OW  526   1.655   2.257   0.857 -0.5640  0.1501  0.8830
  161SOL    HW1  527   1.695   2.199   0.794  3.1459  0.0313  1.4449
  161SOL    HW2  528   1.622   2.178   0.914 -3.1845 -2.2064  0.5249
  162SOL     OW  529   1.120   0.691   2.943 -0.8100  0.4444 -0.5248
  162SOL    HW1  530   1.196   0.723   2.898 -0.5096  2.8598 -2.0050
  162SOL    HW2  531   1.057   0.659   2.863 -3.2381  1.4456 -0.0195
  163SOL     OW  532   1.594   1.320   1.345 -0.7585  0.0082 -0.2209
  163SOL    HW1  533   1.667   1.363   1.295  2.4568 -1.8797  3.9351
  163SOL    HW2  534   1.640   1.251   1.393 -2.1408 -1.3061 -4.3867
  164SOL     OW  535   0.953   2.963   2.108 -0.1117 -0.4477 -0.0570
  164SOL    HW1  536   0.970   2.892   2.177 -1.4039  3.8664 -0.5001
  164SOL    HW2  537   0.863   2.983   2.129  1.0541  1.7793 -2.2284
  165SOL     OW  538   1.829   1.734   2.068  0.3501  0.1630  1.0461
  165SOL    HW1  539   1.918   1.708   2.057 -1.5488  2.7913 -0.8999
  165SOL    HW2  540   1.832   1.789   2.149 -1.7239  1.0723 -2.7800
  166SOL     OW  541   1.699   1.250   0.230  0.6991 -1.3007 -0.1629
  166SOL    HW1  542   1.748   1.203   0.156  1.8449  0.0734  4.3521
  166SOL    HW2  543   1.772   1.292   0.276  0.8648 -1.4826 -0.8547
  167SOL     OW  544   2.896   0.333   1.132 -0.3053  0.0978  0.4358
  167SOL    HW1  545   2.804   0.312   1.161 -2.3460  1.1023 -1.7104
  167SOL    HW2  546   2.944   0.305   1.213  1.0453  2.3187 -0.6325
  168SOL     OW  547   0.485   0.563   0.169 -0.3211 -0.1973  0.3116
  168SOL    HW1  548   0.407   0.521   0.200 -3.7607  0.5072 -0.4414
  168SOL    HW2  549   0.507   0.523   0.089 -0.1133  0.5752  0.5414
  169SOL     OW  550   0.746   0.741   1.915  0.4883  0.8817 -0.5650
  169SOL    HW1  551   0.705   0.735   2.002  3.0040  0.4044 -0.6154
  169SOL    HW2  552   0.704   0.820   1.880  0.2237 -1.8508  2.7714
  170SOL     OW  553   2.350   1.332   1.339  0.6462  0.1904 -1.1983
  170SOL    HW1  554   2.334   1.420   1.385 -2.3165  2.1928  0.4075
  170SOL    HW2  555   2.285   1.275   1.377 -0.5756 -0.7110  1.6297
  171SOL     OW  556   2.884   2.003   1.495 -0.4469  1.0601  0.5643
  171SOL    HW1  557   2.880   2.092   1.462 -0.7109 -1.2778  1.7892
  171SOL    HW2  558   2.882   1.949   1.415 -0.0875 -0.9118  0.5861
  172SOL     OW  559   2.921   0.589   1.951 -0.1659 -0.0572  0.1860
  172SOL    HW1  560   2.881   0.662   1.898 -0.8621  3.1792  1.4470
  172SOL    HW2  561   3.006   0.569   1.909 -0.2788 -0.1805  1.3502
  173SOL     OW  562   1.231   1.608   2.776  0.2357 -0.3781  0.9692
  173SOL    HW1  563   1.231   1.663   2.862  0.3986  1.0398 -2.0425
  173SOL    HW2  564   1.249   1.677   2.707 -2.8683 -3.2496  0.9380
  174SOL     OW  565   0.729   2.592   1.849  0.2291 -0.1834  0.5493
  174SOL    HW1  566   0.669   2.634   1.919  3.3248  1.7529  0.7441
  174SOL    HW2  567   0.810   2.598   1.904  1.1460  1.1939 -0.1067
  175SOL     OW  568   2.258   2.632   1.407  0.0072 -1.1914  0.1351
  175SOL    HW1  569   2.214   2.585   1.480 -0.4341 -1.8834  2.6048
  175SOL    HW2  570   2.342   2.590   1.390  3.0575 -2.5633 -1.1599
  176SOL     OW  571   0.256   1.983   2.603  0.5455  0.2117  0.2981
  176SOL    HW1  572   0.301   1.897   2.606  1.1273  0.6334 -3.0943
  176SOL    HW2  573   0.221   1.980   2.506 -0.0054 -0.9319  0.4123
  177SOL     OW  574   1.415   2.374   1.853 -0.2195  0.5304 -0.0459
  177SOL    HW1  575   1.380   2.335   1.771  2.4675 -2.7239 -2.3068
  177SOL    HW2  576   1.476   2.438   1.820 -1.6789 -2.1570 -0.2947
  178SOL     OW  577   1.254   1.476   0.135 -0.0515 -0.3487 -0.5597
  178SOL    HW1  578   1.355   1.489   0.142  0.6319 -0.9546 -0.3198
  178SOL    HW2  579   1.251   1.404   0.068  1.7397 -3.3009  2.1206
  179SOL     OW  580   2.983   1.618   1.399 -0.5197 -0.2373  0.3323
  179SOL    HW1  581   3.061   1.644   1.348  1.8331  2.8949  0.0181
  179SOL    HW2  582   3.010   1.666   1.483  0.4954 -0.6065 -0.6753
  180SOL     OW  583   0.640   2.862   0.543 -0.2539  0.0917  0.0824
  180SOL    HW1  584   0.722   2.904   0.529 -2.4848  1.4077  0.3339
  180SOL    HW2  585   0.659   2.782   0.590 -1.7980  1.4901 -4.6278
  181SOL     OW  586   0.203   1.521   1.961 -0.5369 -0.8593  0.7416
  181SOL    HW1  587   0.152   1.580   1.908  0.0741 -1.2164 -3.0692
  181SOL    HW2  588   0.192   1.570   2.041 -0.1182  2.0833  0.5877
  182SOL     OW  589   1.950   0.449   2.607  0.0832  0.5446  0.9586
  182SOL    HW1  590   1.890   0.466   2.682  0.0502 -3.6004 -0.3504
  182SOL    HW2  591   1.951   0.354   2.619  3.5672  2.7234  2.1997
  183SOL     OW  592   0.993   0.415   1.146  0.4279 -0.0033  0.2577
  183SOL    HW1  593   0.968   0.394   1.053  0.3829  1.5442  2.6103
  183SOL    HW2  594   0.918   0.373   1.185 -3.0758  2.1456  1.4426
  184SOL     OW  595   0.763   0.137   0.571 -0.0403  0.7935 -0.0853
  184SOL    HW1  596   0.849   0.178   0.539 -2.0013  0.2881 -0.3471
  184SOL    HW2  597   0.784   0.089   0.652  0.6616  1.3855 -1.2575
  185SOL     OW  598   1.378   0.656   2.232 -0.1490  1.4792  0.1427
  185SOL    HW1  599   1.408   0.574   2.183  0.0065  0.7419 -1.5793
  185SOL    HW2  600   1.281   0.653   2.197  0.0502 -1.8583  0.9364
  186SOL     OW  601   0.748   2.315   2.073 -0.1968 -0.0633  1.0232
  186SOL    HW1  602   0.735   2.306   1.981 -0.2138  1.5720 -0.8323
  186SOL    HW2  603   0.704   2.233   2.103 -2.4584 -1.5606  2.7064
  187SOL     OW  604   2.927   2.770   0.231 -0.5402 -0.4206 -0.6856
  187SOL    HW1  605   2.944   2.769   0.328 -1.7215  0.6537  1.1561
  187SOL    HW2  606   2.837   2.817   0.227  0.1427 -2.1697  0.7329
  188SOL     OW  607   1.247   1.215   0.013 -0.1901  0.1283  0.3913
  188SOL    HW1  608   1.197   1.222  -0.069  2.0050  2.1889  0.4115
  188SOL    HW2  609   1.171   1.206   0.074 -1.2095  2.5984  3.1435
  189SOL     OW  610   0.014   2.195   2.790  0.6996  0.4871 -0.0196
  189SOL    HW1  611  -0.025   2.151   2.717  1.5024  0.4453  2.2096
  189SOL    HW2  612  -0.056   2.251   2.828 -1.0001 -0.8712  1.4397
  190SOL     OW  613   2.453   2.218   2.044  0.5297  0.3919  0.3226
  190SOL    HW1  614   2.402   2.149   2.098  1.5790  1.9189 -0.2759
  190SOL    HW2  615   2.468   2.189   1.956  1.6257 -0.1551  0.4965
  191SOL     OW  616   1.603   1.967   2.250  0.7724  0.0654  0.7211
  191SOL    HW1  617   1.512   1.981   2.266  0.5290  0.2848 -1.0960
  191SOL    HW2  618   1.626   2.065   2.224  3.9092  0.0878 -1.2482
  192SOL     OW  619   2.029   0.247   1.496  0.8052 -0.1717  0.3228
  192SOL    HW1  620   1.972   0.183   1.527  1.4543 -0.4819 -5.5403
  192SOL    HW2  621   2.034   0.317   1.566  1.7389  2.6768 -0.6185
  193SOL     OW  622   2.408   0.160   2.191  0.6022 -0.1778 -0.4547
  193SOL    HW1  623   2.340   0.100   2.237  0.6142  2.6045 -0.4989
  193SOL    HW2  624   2.446   0.081   2.142  2.1768  2.0495 -0.9612
  194SOL     OW  625   1.987   1.359   0.229  0.3568  0.7274  0.4363
  194SOL    HW1  626   1.993   1.339   0.325  1.1353  2.0890 -1.8105
  194SOL    HW2  627   2.039   1.282   0.187  1.7287 -0.4345  0.2161
  195SOL     OW  628   2.464   2.711   1.150  0.3618 -0.6379 -0.4769
  195SOL    HW1  629   2.508   2.729   1.067  1.5880  0.7519  2.1221
  195SOL    HW2  630   2.375   2.682   1.123 -0.9034  1.4889 -1.8776
  196SOL     OW  631   0.853   2.702   0.116  0.2937  0.5739  0.0218
  196SOL    HW1  632   0.774   2.763   0.121 -2.2093 -0.3502 -0.9614
  196SOL    HW2  633   0.867   2.686   0.210 -0.5233 -0.3798  2.3356
  197SOL     OW  634   2.079   1.158   2.066 -0.2585 -0.3260  0.0253
  197SOL    HW1  635   2.142   1.159   1.995 -1.1171 -0.4299 -1.4748
  197SOL    HW2  636   2.009   1.108   2.022 -0.9330 -0.2317  0.6639
  198SOL     OW  637   1.298   0.529   2.739 -0.7603  0.7380  0.1661
  198SOL    HW1  638   1.363   0.503   2.669 -2.4157 -1.4992  3.4274
  198SOL    HW2  639   1.229   0.578   2.692 -0.3759 -3.0149  0.7770
  199SOL     OW  640   2.602   2.605   2.933  0.9341  0.0345  0.1136
  199SOL    HW1  641   2.591   2.519   2.968  4.0083 -2.5753  3.0124
  199SOL    HW2  642   2.520   2.635   2.982  2.4925 -2.5023 -0.0112
  200SOL     OW  643   0.073   1.182   0.463  0.2087 -0.3933 -0.4285
  200SOL    HW1  644   0.127   1.097   0.452 -0.1595  1.0842  1.9598
  200SOL    HW2  645   0.137   1.257   0.464  4.4801 -2.0065 -2.8231
  201SOL     OW  646   0.532   1.108   1.592 -0.6169  0.9986 -0.0935
  201SOL    HW1  647   0.620   1.071   1.621 -1.9286 -2.6509  0.5335
  201SOL    HW2  648   0.536   1.198   1.640  0.5183  1.8020  1.2906
  202SOL     OW  649   1.795   2.504   0.810  0.4061 -0.5077 -0.8309
  202SOL    HW1  650   1.714   2.445   0.805  1.2549  0.5019  1.2972
  202SOL    HW2  651   1.832   2.467   0.891  1.8401 -0.9904  1.3499
  203SOL     OW  652   1.270   1.987   2.932  0.2970 -0.3253  0.6895
  203SOL    HW1  653   1.299   1.894   2.913 -0.7228  0.1598  1.3104
  203SOL    HW2  654   1.272   1.983   3.029 -0.9068 -3.5850  0.5037
  204SOL     OW  655   2.367   2.775   2.822 -0.8294 -0.1299 -0.3248
  204SOL    HW1  656   2.377   2.759   2.917 -0.8668 -0.3470 -2.4139
  204SOL    HW2  657   2.284   2.825   2.825 -0.4527  1.4654  0.8311
  205SOL     OW  658   2.054   2.473   1.552  0.8773 -1.1880  0.1955
  205SOL    HW1  659   1.973   2.515   1.529  0.0257  0.5312  2.7612
  205SOL    HW2  660   2.035   2.434   1.637 -4.0093  1.6168  2.3468
  206SOL     OW  661   2.623   0.343   0.957  0.7318  0.4329 -0.3369
  206SOL    HW1  662   2.557   0.376   0.884 -3.1110  1.4832 -1.7784
  206SOL    HW2  663   2.682   0.420   0.965  0.5455  0.1892  2.3421
  207SOL     OW  664   1.009   2.502   2.814  0.3188  0.0541  0.8248
  207SOL    HW1  665   1.024   2.412   2.861  2.1543 -3.4127  1.0814
  207SOL    HW2  666   1.070   2.566   2.844 -1.0587 -0.1653 -2.9128
  208SOL     OW  667   2.333   0.940   1.941 -0.1552  0.2084  0.1382
  208SOL    HW1  668   2.389   0.867   1.896 -2.5478 -1.2601  1.5834
  208SOL    HW2  669   2.370   0.955   2.030  3.4489 -1.0424 -0.1448
  209SOL     OW  670   0.015   0.043   1.797  0.2758 -0.3908  0.0797
  209SOL    HW1  671  -0.056   0.110   1.814 -0.9077  0.3732  0.6017
  209SOL    HW2  672  -0.026  -0.037   1.837  0.2348 -1.5239 -2.6746
  210SOL     OW  673   1.527   2.071   2.904  0.0488 -0.6455  0.2163
  210SOL    HW1  674   1.518   2.165   2.870 -1.2909 -0.6839 -4.7426
  210SOL    HW2  675   1.432   2.052   2.915  0.7701  1.3725 -2.8820
  211SOL     OW  676   0.601   2.356   1.816  0.3523 -0.0543 -0.1143
  211SOL    HW1  677   0.662   2.435   1.805 -1.2695  2.7258  3.7772
  211SOL    HW2  678   0.553   2.376   1.902  1.4951 -1.6432  5.6896
  212SOL     OW  679   0.469   0.793   0.496 -0.6206 -0.1796  0.2161
  212SOL    HW1  680   0.404   0.761   0.564 -2.1423  1.0181  3.6208
  212SOL    HW2  681   0.508   0.863   0.547 -0.4577  1.3226  0.6407
  213SOL     OW  682   1.967   0.563   1.009 -0.3287  0.7677 -1.3210
  213SOL    HW1  683   2.048   0.529   1.042 -1.8019 -1.1808 -0.6190
  213SOL    HW2  684   2.003   0.595   0.927  2.4767  0.7794  1.6815
  214SOL     OW  685   1.612   1.093   0.695 -0.7011 -0.8296 -0.1473
  214SOL    HW1  686   1.658   1.149   0.762 -1.5847 -0.2601 -0.3392
  214SOL    HW2  687   1.664   1.011   0.689 -1.6223 -0.9296  0.6939
  215SOL     OW  688   0.827   2.037   2.920  0.2477 -0.0093  0.2783
  215SOL    HW1  689   0.894   2.085   2.970  2.5741 -0.8800  1.0096
  215SOL    HW2  690   0.819   1.954   2.963 -0.4766 -1.3308 -2.4346
  216SOL     OW  691   0.831   1.080   2.283 -0.2851  0.6047 -0.4970
  216SOL    HW1  692   0.767   1.092   2.212  1.2197 -3.3310 -2.3565
  216SOL    HW2  693   0.848   0.982   2.271  2.1712 -3.0705  1.7510
  217SOL     OW  694   2.282   0.771   2.957 -0.0926  0.6347  0.1730
  217SOL    HW1  695   2.191   0.785   2.927  1.4891 -4.0097  3.4641
  217SOL    HW2  696   2.287   0.672   2.947 -0.0344 -1.1660 -1.1056
  218SOL     OW  697   0.731   2.181   0.524 -0.2763 -0.3797  0.4926
  218SOL    HW1  698   0.676   2.128   0.455 -2.4024 -0.8356 -2.0961
  218SOL    HW2  699   0.779   2.108   0.565 -1.3342 -2.4715  1.6346
  219SOL     OW  700   1.841   0.629   2.988 -1.0356 -0.1910 -0.0019
  219SOL    HW1  701   1.801   0.719   2.991 -0.8277  1.9481 -1.1655
  219SOL    HW2  702   1.772   0.573   2.947 -0.5903 -2.7919  3.0231
  220SOL     OW  703   2.486   0.580   2.304  0.3990  0.3419 -0.1863
  220SOL    HW1  704   2.576   0.571   2.268 -1.2593 -1.2550  0.7545
  220SOL    HW2  705   2.505   0.624   2.389 -1.4746 -2.4789 -1.2214
  221SOL     OW  706   2.884   2.349   1.012  0.6305 -0.0636 -0.0229
  221SOL    HW1  707   2.848   2.314   0.933  0.7135 -0.5578  3.5342
  221SOL    HW2  708   2.944   2.277   1.041  0.7311  3.9272 -1.0176
  222SOL     OW  709   1.515   0.143   0.925 -0.2730  0.4532 -0.1646
  222SOL    HW1  710   1.584   0.201   0.960 -2.7705 -1.3764 -0.1456
  222SOL    HW2  711   1.551   0.127   0.835  1.7177  2.2621 -0.4538
  223SOL     OW  712   0.475   0.394   0.575  0.3153 -0.0897 -0.9302
  223SOL    HW1  713   0.399   0.410   0.518 -2.4589 -1.6323  0.0395
  223SOL    HW2  714   0.521   0.321   0.528  0.6007  1.6615 -0.0982
  224SOL     OW  715   1.887   1.922   1.574 -0.0521  0.5489 -0.2699
  224SOL    HW1  716   1.841   1.948   1.657  0.5508  2.2816  2.7650
  224SOL    HW2  717   1.811   1.868   1.536  0.5719  0.6169 -0.3288
  225SOL     OW  718   1.423   0.924   2.316  0.2010  0.4435  0.0496
  225SOL    HW1  719   1.424   0.826   2.299  0.8637  3.0451 -1.0549
  225SOL    HW2  720   1.343   0.948   2.260 -0.4580  0.9101 -0.2446
  226SOL     OW  721   1.035   2.566   1.517  0.3524 -0.5244  0.2009
  226SOL    HW1  722   1.105   2.575   1.574 -2.9625 -0.4280  0.3682
  226SOL    HW2  723   0.978   2.490   1.546  1.8344  0.7568 -2.5415
  227SOL     OW  724   0.109   1.257   2.509 -0.3656  0.1394 -0.0363
  227SOL    HW1  725   0.095   1.196   2.432  0.2916  1.3426  0.5729
  227SOL    HW2  726   0.012   1.260   2.536 -1.0955 -0.0871 -0.7832
  228SOL     OW  727   2.180   1.388   2.828  0.9400  0.1046 -0.4771
  228SOL    HW1  728   2.089   1.374   2.845  1.6512  1.6203  0.8489
  228SOL    HW2  729   2.221   1.380   2.922 -2.0155  1.7996  2.4071
  229SOL     OW  730   1.562   2.825   2.245  0.5498  0.9853 -0.5327
  229SOL    HW1  731   1.581   2.785   2.332  1.7027  0.0231 -0.1226
  229SOL    HW2  732   1.649   2.834   2.203  2.9198 -1.1496 -0.5945
  230SOL     OW  733   0.462   1.856   1.347 -0.0155  0.4745  0.4292
  230SOL    HW1  734   0.485   1.914   1.422  0.3049  0.7219  4.3819
  230SOL    HW2  735   0.464   1.929   1.276 -2.0622 -0.1835 -0.5498
  231SOL     OW  736   2.343   2.265   1.758 -0.2607 -0.2521  0.0989
  231SOL    HW1  737   2.250   2.289   1.738  1.5360  0.9324 -3.2910
  231SOL    HW2  738   2.340   2.169   1.749 -2.7454  2.9224  0.1859
  232SOL     OW  739   0.768   2.055   2.168 -0.3553 -0.2402  0.0903
  232SOL    HW1  740   0.845   2.071   2.229 -1.4123  1.8704  2.1425
  232SOL    HW2  741   0.713   1.999   2.228  1.0691  1.5579 -3.9009
  233SOL     OW  742   0.014   0.505   0.940 -0.3894  0.0646 -0.5145
  233SOL    HW1  743  -0.032   0.431   0.981  0.6408 -1.1193  2.1261
  233SOL    HW2  744   0.008   0.574   1.012 -0.4104  1.2619 -0.2013
  234SOL     OW  745   0.308   0.536   2.756 -0.5359 -0.1372  0.0604
  234SOL    HW1  746   0.321   0.606   2.694 -0.3825  1.2527  0.8134
  234SOL    HW2  747   0.267   0.595   2.824 -3.2938  3.3941 -0.1507
  235SOL     OW  748   0.592   1.874   2.578 -0.0949  0.9041  0.0952
  235SOL    HW1  749   0.532   1.854   2.653  1.2731 -0.0353  1.5689
  235SOL    HW2  750   0.606   1.784   2.539  0.3767  2.3358 -3.8235
  236SOL     OW  751   0.413   2.490   2.823 -0.5728  0.1056 -0.2618
  236SOL    HW1  752   0.490   2.500   2.755  0.0139 -0.5608 -4.1051
  236SOL    HW2  753   0.340   2.505   2.766 -3.2539  0.7927 -0.7182
  237SOL     OW  754   2.943   0.942   1.208  0.5658 -0.2046  0.9444
  237SOL    HW1  755   2.867   0.981   1.171 -3.2343 -1.1308 -1.2960
  237SOL    HW2  756   2.941   0.855   1.168  0.0683 -1.6434 -1.4571
  238SOL     OW  757   1.504   2.800   0.782 -0.6884 -0.0100  0.0602
  238SOL    HW1  758   1.415   2.808   0.751 -4.3748 -0.1902  2.3342
  238SOL    HW2  759   1.547   2.879   0.734 -0.4682  2.4973 -1.7546
  239SOL     OW  760   1.854   2.927   2.191  0.4027 -0.0302  0.3053
  239SOL    HW1  761   1.891   3.000   2.140  1.7214  0.5237 -1.4832
  239SOL    HW2  762   1.834   2.964   2.274  3.0338 -2.8394 -0.4038
  240SOL     OW  763   1.089   0.762   0.859 -0.2326 -0.1634 -0.1329
  240SOL    HW1  764   1.082   0.860   0.873  0.7805  0.4154 -0.2569
  240SOL    HW2  765   1.130   0.751   0.768  0.3084 -0.6322 -1.5050
  241SOL     OW  766   1.733   2.132   1.685  0.2393 -0.0270  0.0730
  241SOL    HW1  767   1.791   2.190   1.737 -1.6399  0.4669  2.2167
  241SOL    HW2  768   1.724   2.177   1.593  0.6512  0.6185 -1.3071
  242SOL     OW  769   2.291   1.609   1.783  0.7632 -0.7875 -0.1044
  242SOL    HW1  770   2.208   1.611   1.837 -0.8829  0.6212  0.2253
  242SOL    HW2  771   2.344   1.542   1.821  2.4541 -1.3515 -0.1265
  243SOL     OW  772   1.933   1.382   2.939 -0.2095 -0.3637  0.0851
  243SOL    HW1  773   1.923   1.405   3.033  1.5264  0.2011  2.1780
  243SOL    HW2  774   1.887   1.299   2.932  2.1843  1.7475 -0.1641
  244SOL     OW  775   1.879   2.427   0.027 -0.4471 -0.3579  0.4019
  244SOL    HW1  776   1.843   2.413  -0.056 -0.0036 -2.2655 -0.8230
  244SOL    HW2  777   1.816   2.484   0.068 -0.4280  1.7823 -0.4416
  245SOL     OW  778   2.678   2.227   0.546 -0.0940  0.0742  0.7309
  245SOL    HW1  779   2.645   2.152   0.495  1.6626  2.3996  1.3690
  245SOL    HW2  780   2.659   2.295   0.477  0.0147 -2.6505  0.8569
  246SOL     OW  781   0.919   1.326   2.704 -0.6340  0.4721 -1.2624
  246SOL    HW1  782   0.834   1.316   2.667 -0.0390  1.5939 -2.1993
  246SOL    HW2  783   0.965   1.360   2.629  4.1910 -0.3087  0.0072
  247SOL     OW  784   2.216   1.411   2.402  0.6870 -0.1595  1.2195
  247SOL    HW1  785   2.299   1.368   2.434  1.1337  1.5306 -3.4808
  247SOL    HW2  786   2.155   1.423   2.476 -2.4189  0.4059 -0.4115
  248SOL     OW  787   0.903   1.639   0.086  0.0916 -0.0305  0.1050
  248SOL    HW1  788   0.883   1.593   0.002 -0.7839  1.1568  2.8875
  248SOL    HW2  789   0.851   1.722   0.071 -1.0217 -0.8137 -0.5702
  249SOL     OW  790   2.144   0.448   0.040 -0.7474 -0.2494  0.1419
  249SOL    HW1  791   2.216   0.378   0.024 -3.2961  0.3521 -0.0021
  249SOL    HW2  792   2.060   0.396   0.049  0.7843  4.1843  0.5561
  250SOL     OW  793   0.847   1.908   1.064 -0.1753 -0.4055  0.3908
  250SOL    HW1  794   0.891   1.981   1.107 -0.5978  2.0655 -0.2877
  250SOL    HW2  795   0.879   1.919   0.974  1.1274  1.3773 -1.4638
  251SOL     OW  796   1.062   2.658   2.082 -1.0053  0.0387  0.0961
  251SOL    HW1  797   0.965   2.640   2.081  1.2221 -2.7178  1.5713
  251SOL    HW2  798   1.073   2.708   2.170  2.2475 -2.8123  1.1492
  252SOL     OW  799   2.902   0.183   2.252  0.6945 -0.3713  0.1101
  252SOL    HW1  800   2.976   0.156   2.196  1.0454  0.2349 -0.7051
  252SOL    HW2  801   2.926   0.133   2.335  0.5026 -0.7165  0.0288
  253SOL     OW  802   1.815   0.043   0.932 -0.3130 -0.4572  0.2183
  253SOL    HW1  803   1.849   0.034   1.024  0.5288 -0.5926  0.4580
  253SOL    HW2  804   1.779  -0.050   0.917  2.6306 -1.9301  0.7886
  254SOL     OW  805   0.554   0.662   0.891 -0.5240 -0.5691  0.2780
  254SOL    HW1  806   0.599   0.748   0.867 -0.1586  2.2816 -2.7003
  254SOL    HW2  807   0.529   0.691   0.979 -1.7524  2.5601  2.6363
  255SOL     OW  808   1.612   0.462   2.202 -0.6326 -0.0674 -0.8219
  255SOL    HW1  809   1.549   0.451   2.274  0.0318 -2.2083 -0.1869
  255SOL    HW2  810   1.690   0.434   2.259 -2.0373 -0.9598 -1.6773
  256SOL     OW  811   0.300   1.151   1.746  0.2818  0.1254 -0.3107
  256SOL    HW1  812   0.342   1.069   1.741  0.6941  0.8406  2.7388
  256SOL    HW2  813   0.212   1.138   1.696 -4.5258  0.1368 -0.1888
  257SOL     OW  814   1.621   2.439   1.255 -0.4181 -0.1442 -0.2444
  257SOL    HW1  815   1.710   2.467   1.266 -0.1664 -1.8736  0.1786
  257SOL    HW2  816   1.576   2.487   1.183  1.4627  2.5294 -0.9723
  258SOL     OW  817   1.205   1.677   0.716 -0.4680  0.3197 -0.5531
  258SOL    HW1  818   1.182   1.578   0.707 -0.9302 -1.1176 -3.1400
  258SOL    HW2  819   1.233   1.665   0.802  0.9535  1.1209 -0.7146
  259SOL     OW  820   2.376   1.004   0.320 -1.1016 -0.1645 -0.3947
  259SOL    HW1  821   2.340   1.088   0.332  0.4324  0.4216 -0.7825
  259SOL    HW2  822   2.436   0.993   0.395  1.1273  0.7965  3.3460
  260SOL     OW  823   0.869   1.327   2.965  0.4942  0.3064  0.2691
  260SOL    HW1  824   0.775   1.335   2.971 -0.5401 -0.0851 -0.1462
  260SOL    HW2  825   0.867   1.298   2.867  1.4169 -0.0763 -1.8731
  261SOL     OW  826   0.349   2.586   0.623  0.5704  0.6640  1.0110
  261SOL    HW1  827   0.308   2.525   0.679 -1.8902 -1.5361  3.2626
  261SOL    HW2  828   0.270   2.601   0.565  1.0489 -1.2865 -2.3708
  262SOL     OW  829   1.762   1.117   1.468 -0.0243  0.3619  0.2082
  262SOL    HW1  830   1.694   1.097   1.526 -1.8719  0.3930 -1.8412
  262SOL    HW2  831   1.820   1.046   1.470  0.1471 -0.2975  1.9062
  263SOL     OW  832   1.826   0.402   2.339  0.3023 -0.2921 -0.0973
  263SOL    HW1  833   1.889   0.379   2.267 -4.7100  0.8983 -1.2253
  263SOL    HW2  834   1.860   0.480   2.390 -0.1792  0.2443  3.6433
  264SOL     OW  835   0.983   1.856   2.365  0.2733  0.4538  0.1523
  264SOL    HW1  836   0.949   1.814   2.278  1.2764  1.5092  0.2973
  264SOL    HW2  837   1.045   1.799   2.410  1.1629  0.4540  2.0316
  265SOL     OW  838   1.530   1.688   0.276  0.0359 -0.0760 -0.4177
  265SOL    HW1  839   1.519   1.604   0.227 -0.0873 -0.4668  0.5600
  265SOL    HW2  840   1.617   1.721   0.248  1.1355  0.7675 -0.7859
  266SOL     OW  841   2.709   0.561   2.563  0.0373  0.1749 -0.0674
  266SOL    HW1  842   2.788   0.564   2.611  0.5965 -0.1160  0.1578
  266SOL    HW2  843   2.728   0.483   2.504  0.9200  1.0269  0.0575
  267SOL     OW  844   2.196   1.061   2.827 -0.0704 -0.5220  0.0329
  267SOL    HW1  845   2.199   1.079   2.730  0.2310 -0.2334 -0.1241
  267SOL    HW2  846   2.153   0.974   2.822 -0.9946  0.3421 -1.1627
  268SOL     OW  847   1.767   0.051   2.419  0.3303  0.6165 -0.0500
  268SOL    HW1  848   1.812   0.121   2.470 -1.1283  1.2026 -4.4327
  268SOL    HW2  849   1.746  -0.010   2.493 -1.4176 -2.8710 -0.4744
  269SOL     OW  850   0.458   2.008   1.932 -0.1396  0.3015 -0.1061
  269SOL    HW1  851   0.438   2.006   2.031 -1.2727 -2.3244  1.0809
  269SOL    HW2  852   0.507   2.088   1.924  1.0075  1.2253  1.1409
  270SOL     OW  853   2.161   0.035   2.358  0.0133 -0.0155 -0.3506
  270SOL    HW1  854   2.121   0.001   2.278  0.9372  0.6116  0.6020
  270SOL    HW2  855   2.217  -0.024   2.391  1.3693  3.7945 -2.6017
  271SOL     OW  856   1.821   0.503   1.272  0.9985 -0.4586  0.4844
  271SOL    HW1  857   1.832   0.516   1.178  0.0450 -2.6420 -0.1843
  271SOL    HW2  858   1.904   0.537   1.322 -2.3549  1.7764 -1.2351
  272SOL     OW  859   2.352   0.317   1.960  0.2158 -0.0174 -0.6613
  272SOL    HW1  860   2.355   0.266   2.042  0.0085 -2.9208 -2.9278
  272SOL    HW2  861   2.276   0.377   1.972  0.8060  1.9992 -1.6600
  273SOL     OW  862   0.123   2.836   1.625  0.9109 -0.4310  0.5322
  273SOL    HW1  863   0.072   2.903   1.674  1.8229 -1.6815 -3.0183
  273SOL    HW2  864   0.173   2.791   1.703  0.7530 -0.7296 -0.3473
  274SOL     OW  865   2.832   1.347   2.611 -0.0101 -0.3792  0.2769
  274SOL    HW1  866   2.751   1.359   2.569  0.4242 -2.9973 -0.1214
  274SOL    HW2  867   2.811   1.292   2.693  3.5568 -0.2222 -1.8964
  275SOL     OW  868   2.393   0.250   1.699 -0.5634 -0.1247  0.5841
  275SOL    HW1  869   2.375   0.235   1.795  3.8287 -0.2471  1.8375
  275SOL    HW2  870   2.306   0.275   1.666 -0.1477  0.8916 -1.2531
  276SOL     OW  871   2.079   1.720   1.552 -0.2712 -0.5323 -0.2469
  276SOL    HW1  872   1.993   1.774   1.533  0.4749  1.0976 -0.2778
  276SOL    HW2  873   2.118   1.772   1.624  0.7342  2.0475  0.6483
  277SOL     OW  874   2.204   1.700   2.434 -0.5457  0.2837  0.3679
  277SOL    HW1  875   2.213   1.613   2.480 -0.0785  2.1835  2.0656
  277SOL    HW2  876   2.260   1.676   2.360 -1.6481 -2.0793  2.5208
  278SOL     OW  877   2.978   0.569   2.675  0.5789 -0.4419 -0.8777
  278SOL    HW1  878   3.036   0.594   2.601  1.4324 -1.0494 -2.4333
  278SOL    HW2  879   3.041   0.579   2.742 -0.2755  1.8114  1.1292
  279SOL     OW  880   2.954   2.349   0.485 -0.0033 -0.0114 -0.0373
  279SOL    HW1  881   2.978   2.298   0.412  0.5376 -1.3331  1.6301
  279SOL    HW2  882   2.877   2.302   0.527  1.7087  1.2958 -2.8114
  280SOL     OW  883   2.577   1.044   2.161  0.7702 -0.9709 -0.1736
  280SOL    HW1  884   2.642   1.102   2.118  4.9750 -0.5022 -0.5579
  280SOL    HW2  885   2.643   0.986   2.196 -0.2354 -2.5116 -2.7662
  281SOL     OW  886   1.350   1.239   1.742 -0.2613  0.9730 -0.1597
  281SOL    HW1  887   1.383   1.329   1.773  3.1032  4.0950 -0.8957
  281SOL    HW2  888   1.436   1.190   1.747  0.6365 -2.1148  1.6352
  282SOL     OW  889   1.480   2.089   2.555  0.3880  0.0057  0.2059
  282SOL    HW1  890   1.466   2.082   2.459  0.5437 -0.6965 -0.2576
  282SOL    HW2  891   1.576   2.066   2.552  1.5741  2.7843  1.2417
  283SOL     OW  892   0.374   1.705   2.663  0.2451 -0.1845 -1.0476
  283SOL    HW1  893   0.352   1.623   2.711 -1.3608 -1.0370  2.7349
  283SOL    HW2  894   0.450   1.670   2.612 -0.0035 -1.3268  1.5754
  284SOL     OW  895   1.951   0.271   2.118  0.4608 -0.5081  0.0808
  284SOL    HW1  896   1.877   0.233   2.084  3.7600  0.8388  0.6610
  284SOL    HW2  897   2.020   0.208   2.091  0.8371 -3.2317 -4.5044
  285SOL     OW  898   2.280   0.395   2.557  0.0581 -0.2577 -1.1257
  285SOL    HW1  899   2.227   0.446   2.489  0.6211  4.6557  3.1492
  285SOL    HW2  900   2.361   0.368   2.499 -0.8403  1.6580  0.0318
  286SOL     OW  901   2.212   0.610   2.307  0.4292 -0.0187  0.4941
  286SOL    HW1  902   2.221   0.683   2.241 -1.5356  0.9583  0.3865
  286SOL    HW2  903   2.303   0.583   2.318 -1.1835 -0.8795  0.8160
  287SOL     OW  904   0.485   2.906   2.425 -0.5159  0.4079  0.3499
  287SOL    HW1  905   0.432   2.841   2.462  2.5003 -2.5595  1.8885
  287SOL    HW2  906   0.573   2.875   2.442  2.9696 -0.1675 -0.1662
  288SOL     OW  907   2.263   1.060   1.694 -0.1315  0.1473 -0.4635
  288SOL    HW1  908   2.263   0.989   1.767  4.0316 -0.6749 -0.5022
  288SOL    HW2  909   2.313   1.005   1.630  1.3005  1.0059  0.0163
  289SOL     OW  910   2.011   0.160   0.729  0.1616  0.4408 -0.4176
  289SOL    HW1  911   1.921   0.141   0.764 -3.5699 -0.0737 -0.6162
  289SOL    HW2  912   2.047   0.225   0.794  4.7868  2.7796  0.9871
  290SOL     OW  913   0.966   0.476   0.640 -0.1329  0.6585 -0.1378
  290SOL    HW1  914   0.872   0.485   0.614 -1.3456  0.7423 -3.0404
  290SOL    HW2  915   0.990   0.566   0.607 -0.7613 -3.1843  2.2658
  291SOL     OW  916   1.227   1.458   1.333  0.0313  0.3281 -0.1583
  291SOL    HW1  917   1.155   1.413   1.276 -1.4069 -1.8123 -1.0385
  291SOL    HW2  918   1.300   1.442   1.273 -3.2903  0.3188 -3.0519
  292SOL     OW  919   0.364   0.135   2.932  0.5207  0.8821 -0.6799
  292SOL    HW1  920   0.460   0.158   2.920 -0.2754  0.2374 -0.5580
  292SOL    HW2  921   0.344   0.121   2.836 -1.8471 -1.9627  1.0429
  293SOL     OW  922   2.067   2.353   1.798 -0.3254  0.1893  0.3960
  293SOL    HW1  923   1.987   2.308   1.839  1.0661  0.0157  1.6218
  293SOL    HW2  924   2.051   2.445   1.843  0.5022  1.6109 -4.0106
  294SOL     OW  925   2.501   1.738   2.606 -0.4709 -0.6109  0.2051
  294SOL    HW1  926   2.426   1.784   2.580 -1.6293 -1.7090 -0.8664
  294SOL    HW2  927   2.462   1.660   2.658  0.8610 -0.3296 -2.1242
  295SOL     OW  928   1.131   0.274   2.141 -0.2706  0.4911  0.2332
  295SOL    HW1  929   1.041   0.241   2.106 -1.6888 -3.0738  0.8819
  295SOL    HW2  930   1.181   0.186   2.115 -0.4435 -4.4924  3.0553
  296SOL     OW  931   2.183   2.453   2.127 -0.7634  1.0447  0.2007
  296SOL    HW1  932   2.282   2.479   2.134 -0.9259 -0.7745 -1.1367
  296SOL    HW2  933   2.148   2.513   2.062 -0.1677  2.3954 -0.5709
  297SOL     OW  934   0.468   1.736   2.285  0.0811 -0.3078  0.4816
  297SOL    HW1  935   0.429   1.821   2.242  1.0378 -1.8414 -1.0713
  297SOL    HW2  936   0.555   1.723   2.230 -0.8259  1.7701 -1.5891
  298SOL     OW  937   0.163   0.156   1.238 -0.5317 -0.6196 -0.6697
  298SOL    HW1  938   0.148   0.136   1.335  3.6951 -1.5732  0.7527
  298SOL    HW2  939   0.087   0.103   1.218 -1.2465 -2.0573  1.7344
  299SOL     OW  940   0.159   1.786   1.827 -0.0066  0.2951 -0.0486
  299SOL    HW1  941   0.124   1.730   1.756  2.3250 -0.5426 -3.2637
  299SOL    HW2  942   0.180   1.863   1.773  0.0999  0.2773 -1.1378
  300SOL     OW  943   2.668   0.838   0.749  0.0538 -0.2306 -0.3127
  300SOL    HW1  944   2.749   0.802   0.706 -2.7545  0.4334  1.2978
  300SOL    HW2  945   2.713   0.894   0.812  3.7533 -0.6932 -0.5962
  301SOL     OW  946   0.715   1.823   0.343 -0.4263 -0.4362  0.0910
  301SOL    HW1  947   0.655   1.884   0.297  0.5317 -0.1244  3.0141
  301SOL    HW2  948   0.747   1.878   0.419 -0.4797 -0.5250 -0.6607
  302SOL     OW  949   2.940   1.792   0.656 -0.0053 -0.1540 -0.2194
  302SOL    HW1  950   2.904   1.711   0.636  1.9024 -2.1878  0.1216
  302SOL    HW2  951   3.025   1.764   0.695  1.3475  2.0898 -0.7155
  303SOL     OW  952   2.887   1.926   2.931 -0.0042 -0.1806 -0.3528
  303SOL    HW1  953   2.922   1.838   2.912  1.2744 -1.2865 -2.6644
  303SOL    HW2  954   2.962   1.972   2.904  0.3703 -0.7466  1.1922
  304SOL     OW  955   2.145   1.846   2.664  0.2114 -0.2971 -0.5378
  304SOL    HW1  956   2.056   1.873   2.643 -0.8244 -1.2866  1.0383
  304SOL    HW2  957   2.176   1.806   2.581  3.2624  0.3569 -0.6563
  305SOL     OW  958   1.358   2.065   2.299  0.0089 -0.2942  0.2730
  305SOL    HW1  959   1.273   2.072   2.346 -0.1084  2.2227 -0.4645
  305SOL    HW2  960   1.340   2.087   2.205 -1.2917  1.5558 -1.8127
  306SOL     OW  961   0.209   1.689   0.017 -0.1441  0.1619  0.1421
  306SOL    HW1  962   0.191   1.763   0.076 -0.2209 -2.3747 -2.8138
  306SOL    HW2  963   0.228   1.623   0.072 -0.7682  0.9693 -1.5336
  307SOL     OW  964   0.988   0.937   0.015 -0.3060  0.0405 -0.5033
  307SOL    HW1  965   0.992   1.017   0.070 -0.8347  0.4263 -0.7897
  307SOL    HW2  966   1.033   0.868   0.063  0.4963  1.7239  0.2607
  308SOL     OW  967   2.420   2.383   1.286 -0.5136 -0.3891  0.9194
  308SOL    HW1  968   2.494   2.349   1.345  0.2028  0.5352 -1.3998
  308SOL    HW2  969   2.465   2.382   1.197 -0.9214 -0.3396 -3.1829
  309SOL     OW  970   2.691   1.218   1.424 -0.3231  0.3241 -0.2536
  309SOL    HW1  971   2.757   1.279   1.451 -3.2324  1.1770 -0.9088
  309SOL    HW2  972   2.622   1.291   1.416  1.1582  0.8447 -1.8392
  310SOL     OW  973   0.362   2.926   0.480  0.0451 -0.3934  0.7803
  310SOL    HW1  974   0.419   2.993   0.449  0.5889 -1.6190  5.4256
  310SOL    HW2  975   0.419   2.882   0.550 -2.1573 -2.0786 -1.9131
  311SOL     OW  976   0.352   0.804   0.234 -0.9019  0.1604 -0.4364
  311SOL    HW1  977   0.385   0.745   0.170  1.9038  3.2671 -1.7619
  311SOL    HW2  978   0.402   0.780   0.319 -0.4854  1.1397 -1.5450
  312SOL     OW  979   2.924   2.076   2.569 -0.0504 -0.1324 -0.1893
  312SOL    HW1  980   2.830   2.080   2.556  0.9274  1.0529 -1.5512
  312SOL    HW2  981   2.948   2.002   2.511  5.1176 -1.0257  1.5310
  313SOL     OW  982   1.862   0.855   1.529  0.0488 -0.0481  0.5529
  313SOL    HW1  983   1.889   0.870   1.439  1.0007  0.8658  2.3588
  313SOL    HW2  984   1.808   0.778   1.523 -1.1719  3.1902  0.4022
  314SOL     OW  985   1.532   0.107   2.262 -0.3227 -0.6647  0.7007
  314SOL    HW1  986   1.610   0.143   2.301  0.2734  3.0400  0.2842
  314SOL    HW2  987   1.561   0.013   2.257  1.0084  2.1006 -0.0398
  315SOL     OW  988   1.709   0.277   1.954  0.0350 -0.4697 -0.2245
  315SOL    HW1  989   1.615   0.294   1.975 -0.3541 -0.1133  0.0466
  315SOL    HW2  990   1.709   0.256   1.865 -1.7712  2.4131  2.7667
  316SOL     OW  991   1.036   2.238   0.961  0.3121 -0.3337  0.0878
  316SOL    HW1  992   1.124   2.275   0.941 -4.1439 -2.2016  0.3794
  316SOL    HW2  993   1.009   2.225   0.868 -3.0456 -1.4830 -1.5000
  317SOL     OW  994   1.024   2.096   0.351  0.6651 -0.1678  0.0903
  317SOL    HW1  995   1.118   2.126   0.376  0.4285 -0.5939  2.4890
  317SOL    HW2  996   1.020   2.022   0.409 -1.4257  2.2507 -0.7528
  318SOL     OW  997   2.509   2.934   2.095  0.7954 -0.2298 -0.1977
  318SOL    HW1  998   2.472   2.858   2.139 -2.3705  2.9837 -2.1891
  318SOL    HW2  999   2.592   2.897   2.053  0.3528  0.8140  3.1722
  319SOL     OW 1000   2.525   0.006   1.268 -0.1295 -0.0418 -0.6389
  319SOL    HW1 1001   2.609   0.040   1.227 -2.1706  0.8431 -2.2309
  319SOL    HW2 1002   2.484   0.088   1.293 -0.0956 -1.3612  0.6255
  320SOL     OW 1003   1.639   1.959   0.125  0.0580 -0.6448 -0.5647
  320SOL    HW1 1004   1.543   1.957   0.131  2.1420  1.2002  4.2011
  320SOL    HW2 1005   1.646   2.002   0.038  2.9695  0.3653  0.6848
  321SOL     OW 1006   1.650   0.509   2.773 -0.7141 -0.2267 -0.5670
  321SOL    HW1 1007   1.577   0.563   2.800  0.2902 -1.3122  0.6979
  321SOL    HW2 1008   1.659   0.443   2.843  2.0933 -3.8619 -0.4950
  322SOL     OW 1009   1.578   1.229   0.997  0.3871  0.1828 -0.3651
  322SOL    HW1 1010   1.492   1.197   0.971 -0.6152 -0.3028  4.3755
  322SOL    HW2 1011   1.620   1.143   1.037 -0.6840 -1.2437  0.9241
  323SOL     OW 1012   0.166   0.560   1.536 -0.0212 -0.3388 -0.1568
  323SOL    HW1 1013   0.155   0.494   1.602 -0.1838 -0.7210 -1.5410
  323SOL    HW2 1014   0.261   0.559   1.509  1.1718  1.0031  0.0094
  324SOL     OW 1015   2.411   0.783   0.191  1.1011 -0.1146 -0.6223
  324SOL    HW1 1016   2.394   0.870   0.236  0.0950 -0.3329  2.7238
  324SOL    HW2 1017   2.361   0.781   0.110  0.3374  0.1045 -0.0627
  325SOL     OW 1018   2.039   2.599   0.726 -0.5523 -0.3113  0.3038
  325SOL    HW1 1019   1.956   2.548   0.724  0.0593  1.8415  2.1406
  325SOL    HW2 1020   2.034   2.650   0.809  0.4747  2.7139 -2.6680
  326SOL     OW 1021   1.207   2.563   2.988 -0.0324 -0.3417  0.0051
  326SOL    HW1 1022   1.301   2.578   3.033  0.3225  2.1931 -0.9236
  326SOL    HW2 1023   1.195   2.468   2.998  0.9695  2.7891 -3.0409
  327SOL     OW 1024   2.907   2.415   2.150 -0.1527 -0.4506  0.5314
  327SOL    HW1 1025   2.939   2.352   2.086 -1.2588  2.2201  0.7143
  327SOL    HW2 1026   2.995   2.447   2.192  0.3909  1.9681  2.7007
  328SOL     OW 1027   2.878   0.113   0.746  0.3790 -0.1243  0.1899
  328SOL    HW1 1028   2.948   0.137   0.809  1.4206 -0.0604 -0.8473
  328SOL    HW2 1029   2.940   0.089   0.677  0.3641 -0.2704  4.1189
  329SOL     OW 1030   1.414   2.536   2.198 -0.2295  0.2342  0.4788
  329SOL    HW1 1031   1.427   2.445   2.205  1.3923 -4.3503  1.8270
  329SOL    HW2 1032   1.497   2.555   2.148  0.2088  0.1429 -1.9158
  330SOL     OW 1033   0.037   1.593   2.302 -0.6057 -0.6692  0.2637
  330SOL    HW1 1034   0.023   1.601   2.402  2.8613 -1.1174 -2.3555
  330SOL    HW2 1035   0.134   1.580   2.303 -1.3534 -1.8677  2.6846
  331SOL     OW 1036   1.256   2.714   0.541 -0.2872  0.1123  0.1575
  331SOL    HW1 1037   1.320   2.638   0.514 -0.7790 -0.3578  1.3813
  331SOL    HW2 1038   1.176   2.657   0.571  1.5988 -3.5953  2.2511
  332SOL     OW 1039   1.949   0.669   0.433 -1.1297  0.3666 -0.6026
  332SOL    HW1 1040   1.986   0.653   0.347 -1.2596 -0.8452  0.0004
  332SOL    HW2 1041   2.025   0.647   0.485 -0.2503  1.0659  0.1717
  333SOL     OW 1042   2.690   0.285   2.119  0.5038 -0.8960 -0.8310
  333SOL    HW1 1043   2.766   0.247   2.163  0.4854 -0.3154 -0.4070
  333SOL    HW2 1044   2.621   0.210   2.113  2.9959  4.3935 -1.7151
  334SOL     OW 1045   2.108   1.736   0.935  0.0338  0.0539  0.8921
  334SOL    HW1 1046   2.171   1.703   0.861  0.1180 -0.1333 -0.0660
  334SOL    HW2 1047   2.068   1.656   0.959  1.5584 -2.6540  1.1327
  335SOL     OW 1048   2.332   0.177   2.991 -0.4365 -0.7380  0.5399
  335SOL    HW1 1049   2.431   0.194   2.969 -0.4946 -1.3188 -0.9474
  335SOL    HW2 1050   2.280   0.182   2.910 -1.6182  1.4981  0.8477
  336SOL     OW 1051   0.296   0.238   2.695  0.1344  0.3468  0.1196
  336SOL    HW1 1052   0.379   0.229   2.643  0.9419 -0.5262  0.9559
  336SOL    HW2 1053   0.312   0.336   2.721 -1.8589 -1.8477 -0.5187
  337SOL     OW 1054   0.146   2.698   0.436 -0.1912 -0.5347  0.6062
  337SOL    HW1 1055   0.195   2.770   0.483 -2.2023  1.0005  1.4244
  337SOL    HW2 1056   0.183   2.719   0.347 -0.0860 -0.7135  0.1422
  338SOL     OW 1057   1.953   2.237   0.221  0.3889 -0.0747  0.4641
  338SOL    HW1 1058   1.995   2.307   0.279  3.9596  0.3514 -0.8504
  338SOL    HW2 1059   1.933   2.290   0.145 -2.4535  0.2693 -0.6926
  339SOL     OW 1060   1.265   0.523   1.777  0.1144  0.2860 -0.5858
  339SOL    HW1 1061   1.190   0.503   1.834  2.2369  1.5912  2.1410
  339SOL    HW2 1062   1.311   0.561   1.847 -1.3122  2.0172 -3.4161
  340SOL     OW 1063   0.112   0.568   2.144  0.1832  0.1938 -0.5935
  340SOL    HW1 1064   0.040   0.571   2.077  0.9056 -0.8712 -2.6576
  340SOL    HW2 1065   0.069   0.598   2.223  0.0583 -4.1497 -0.0464
  341SOL     OW 1066   2.170   2.261   1.443  0.1790  0.0950  0.0745
  341SOL    HW1 1067   2.130   2.348   1.472  1.3023 -0.5781  0.6728
  341SOL    HW2 1068   2.249   2.300   1.400 -1.2287  2.0969  2.5963
  342SOL     OW 1069   2.648   2.740   0.276  0.1848 -0.7270 -0.2246
  342SOL    HW1 1070   2.596   2.799   0.218  2.2267 -1.0994  0.1562
  342SOL    HW2 1071   2.620   2.779   0.362  0.3288  1.2649 -2.2737
  343SOL     OW 1072   0.239   0.857   1.633  0.0609 -0.7187 -0.3418
  343SOL    HW1 1073   0.226   0.866   1.538  1.8276 -3.3145  1.0580
  343SOL    HW2 1074   0.151   0.852   1.674  2.0065 -3.3605  0.1294
  344SOL     OW 1075   2.744   1.160   1.156  0.9336 -0.0811 -0.1420
  344SOL    HW1 1076   2.704   1.246   1.139 -0.8406 -0.7952 -0.4435
  344SOL    HW2 1077   2.753   1.171   1.252  1.3113 -1.1125 -1.4628
  345SOL     OW 1078   1.801   1.637   2.499 -0.4556 -0.6764  0.7798
  345SOL    HW1 1079   1.775   1.553   2.522 -0.4721  3.3408  0.3488
  345SOL    HW2 1080   1.795   1.678   2.591  1.5871  4.6480 -4.1802
  346SOL     OW 1081   2.086   0.062   1.971 -0.7191  0.7582  0.3947
  346SOL    HW1 1082   2.147  -0.016   1.991  1.2006 -0.1860  0.8928
  346SOL    HW2 1083   2.070   0.046   1.875 -3.1071 -0.2904 -0.7007
  347SOL     OW 1084   2.097   2.641   0.131  0.4766 -0.5646 -0.1909
  347SOL    HW1 1085   1.999   2.670   0.125  1.9817  1.5078  2.1181
  347SOL    HW2 1086   2.101   2.556   0.183 -0.2497 -0.6663  2.0773
  348SOL     OW 1087   1.400   1.172   2.161 -0.4038 -0.0522 -0.5894
  348SOL    HW1 1088   1.386   1.232   2.237 -2.7185 -1.6963  0.9823
  348SOL    HW2 1089   1.308   1.125   2.168 -0.9256  1.8928  1.3534
  349SOL     OW 1090   1.290   1.338   2.370  0.6902 -0.0391  0.3143
  349SOL    HW1 1091   1.229   1.374   2.300 -1.8765  1.3613  0.6692
  349SOL    HW2 1092   1.244   1.269   2.429 -2.1274 -2.3506  1.4318
  350SOL     OW 1093   1.447   0.791   0.002  0.2684 -0.3688  0.1431
  350SOL    HW1 1094   1.434   0.891   0.034 -1.1373 -3.3109  0.8797
  350SOL    HW2 1095   1.482   0.749   0.080  0.6177 -0.3091 -0.8472
  351SOL     OW 1096   1.567   0.734   0.272  0.7365 -0.1209 -0.6400
  351SOL    HW1 1097   1.592   0.657   0.311 -1.4141  1.9114  1.1133
  351SOL    HW2 1098   1.647   0.788   0.283 -0.1959  0.4953  0.1407
  352SOL     OW 1099   1.970   1.242   1.275 -0.0952 -0.3659  0.5202
  352SOL    HW1 1100   1.980   1.234   1.374  2.0910 -1.5348 -0.3177
  352SOL    HW2 1101   1.953   1.149   1.256  0.2060  0.9616  3.0908
  353SOL     OW 1102   0.875   2.659   0.745  0.7118  0.1071  0.8012
  353SOL    HW1 1103   0.862   2.750   0.765 -0.4731 -0.8683  0.1354
  353SOL    HW2 1104   0.788   2.640   0.711 -1.1711 -2.1968 -0.0878
  354SOL     OW 1105   0.733   2.220   1.193 -0.2593  0.3549  0.3638
  354SOL    HW1 1106   0.813   2.189   1.154  1.2849 -0.9902  2.2626
  354SOL    HW2 1107   0.758   2.320   1.202 -0.6825 -0.5425 -0.2089
  355SOL     OW 1108   0.354   2.764   1.832  0.8388 -0.1440  0.1571
  355SOL    HW1 1109   0.321   2.693   1.777  1.2397 -1.0696 -1.2328
  355SOL    HW2 1110   0.347   2.726   1.920  0.9139 -1.2838  1.9977
  356SOL     OW 1111   1.127   1.338   1.591 -0.9110 -0.1610  0.4311
  356SOL    HW1 1112   1.185   1.261   1.617  0.1249  1.0970  1.7355
  356SOL    HW2 1113   1.154   1.356   1.502 -1.4710 -1.0418  0.3395
  357SOL     OW 1114   0.778   0.234   2.546  0.9528  0.4332  0.0693
  357SOL    HW1 1115   0.699   0.203   2.599  2.3776 -0.5036  0.6685
  357SOL    HW2 1116   0.755   0.237   2.446 -0.7543  1.6537 -1.4280
  358SOL     OW 1117   0.325   1.502   2.241  0.5140  0.2448 -0.1892
  358SOL    HW1 1118   0.378   1.580   2.266  0.0329  0.0046  1.8575
  358SOL    HW2 1119   0.304   1.467   2.333  1.9188 -0.1930  1.8939
  359SOL     OW 1120   1.924   1.692   2.729  0.0156  0.4913 -0.0759
  359SOL    HW1 1121   2.012   1.737   2.738  0.0215  0.5284  1.6198
  359SOL    HW2 1122   1.865   1.746   2.792  0.5860 -2.0875  0.0063
  360SOL     OW 1123   1.220   2.960   2.841 -0.2083  0.1534 -0.6381
  360SOL    HW1 1124   1.166   2.905   2.889  1.1563  3.8759  0.7877
  360SOL    HW2 1125   1.223   2.905   2.757 -1.3832  1.2760 -1.8095
  361SOL     OW 1126   1.560   1.406   2.433  0.0135 -0.5151  0.4179
  361SOL    HW1 1127   1.597   1.381   2.346  2.8355 -0.0097  0.7383
  361SOL    HW2 1128   1.466   1.416   2.410 -1.6296 -0.0007 -0.4347
  362SOL     OW 1129   1.312   0.848   2.767 -0.2211 -0.1903 -0.2749
  362SOL    HW1 1130   1.347   0.822   2.856 -0.9862 -2.5610 -0.5635
  362SOL    HW2 1131   1.380   0.914   2.749 -1.8384  0.0980  0.5151
  363SOL     OW 1132   1.505   0.294   0.431  1.0694  0.0891  0.4379
  363SOL    HW1 1133   1.490   0.365   0.378  3.1071  4.1574  0.6095
  363SOL    HW2 1134   1.425   0.242   0.416 -2.2519  2.4051  1.4217
  364SOL     OW 1135   2.318   2.012   1.435 -0.2313 -0.7141 -0.2800
  364SOL    HW1 1136   2.251   2.085   1.431 -0.3220  0.8138 -0.6436
  364SOL    HW2 1137   2.366   2.022   1.349  0.2175  3.0847  0.4260
  365SOL     OW 1138   0.146   0.257   2.420 -1.0516 -0.1632 -0.7381
  365SOL    HW1 1139   0.105   0.344   2.416 -0.3682 -0.5981 -0.7052
  365SOL    HW2 1140   0.183   0.258   2.511  2.4858 -0.8355  0.3794
  366SOL     OW 1141   0.775   2.953   0.787 -0.3304  0.4750 -0.2794
  366SOL    HW1 1142   0.769   3.032   0.844  0.6308 -0.8106 -0.4193
  366SOL    HW2 1143   0.680   2.933   0.767  1.2996  0.0304 -1.6784
  367SOL     OW 1144   0.334   0.369   1.181  0.0965  0.0107 -0.3633
  367SOL    HW1 1145   0.272   0.296   1.184  0.7317 -0.3521  0.7505
  367SOL    HW2 1146   0.338   0.405   1.275 -0.6390 -2.4073 -2.5593
  368SOL     OW 1147   1.769   0.788   2.676 -0.9254 -0.1471  0.1645
  368SOL    HW1 1148   1.842   0.778   2.611 -1.9296  0.1652  0.9730
  368SOL    HW2 1149   1.689   0.771   2.625 -3.0454 -0.5906  1.1739
  369SOL     OW 1150   1.547   0.512   0.604  0.7571 -0.2592 -0.5852
  369SOL    HW1 1151   1.451   0.500   0.622 -1.9372 -3.3098  0.4533
  369SOL    HW2 1152   1.569   0.501   0.510  1.4500  0.3845  2.5498
  370SOL     OW 1153   0.047   0.479   0.077  0.3818 -0.6377  1.0677
  370SOL    HW1 1154  -0.028   0.431   0.036 -2.2813  0.2947 -1.6199
  370SOL    HW2 1155   0.127   0.444   0.047  3.8660 -0.0740  1.6449
  371SOL     OW 1156   1.710   1.368   0.629  0.7799  0.4574  0.1512
  371SOL    HW1 1157   1.654   1.299   0.585 -0.4995  1.3612  3.0054
  371SOL    HW2 1158   1.797   1.314   0.641 -0.3822 -1.4825 -2.6800
  372SOL     OW 1159   2.017   1.606   1.906  0.1393 -0.5090  0.1368
  372SOL    HW1 1160   1.997   1.522   1.858  1.0774 -3.8852  2.1622
  372SOL    HW2 1161   2.048   1.568   1.991  0.1953 -2.7602  2.6709
  373SOL     OW 1162   2.901   0.949   2.497 -0.5935  0.4233  1.2148
  373SOL    HW1 1163   2.981   0.967   2.551 -0.3023  2.6537 -2.3560
  373SOL    HW2 1164   2.920   1.025   2.434 -0.3670 -0.2906  2.8586
  374SOL     OW 1165   1.196   0.428   0.429  0.1500 -0.5794 -0.3757
  374SOL    HW1 1166   1.127   0.378   0.466 -2.0121 -2.0814  0.2944
  374SOL    HW2 1167   1.241   0.462   0.512 -1.2634 -1.3112  1.8300
  375SOL     OW 1168   2.192   2.661   1.083  0.8538  0.0995 -0.1421
  375SOL    HW1 1169   2.140   2.731   1.024 -0.1699  1.8511 -2.7625
  375SOL    HW2 1170   2.192   2.699   1.172  0.0190  3.0978  0.7023
  376SOL     OW 1171   1.287   2.147   0.400  0.0092  0.0341 -0.5582
  376SOL    HW1 1172   1.362   2.086   0.434 -3.3771  1.8498 -2.2141
  376SOL    HW2 1173   1.350   2.226   0.407  0.9568  1.9203  0.9561
  377SOL     OW 1174   1.288   2.288   0.929  0.0997 -0.5602 -0.1576
  377SOL    HW1 1175   1.265   2.263   1.024  3.7866 -1.0306 -1.4963
  377SOL    HW2 1176   1.380   2.272   0.928 -3.4351 -0.6233  1.1144
  378SOL     OW 1177   2.606   2.311   1.433 -0.7787 -0.2769  0.4107
  378SOL    HW1 1178   2.699   2.300   1.422  3.0438  1.2227 -1.8864
  378SOL    HW2 1179   2.595   2.332   1.528  1.1645 -0.9780 -2.8257
  379SOL     OW 1180   2.464   1.148   2.966 -0.0367  0.3848 -0.2605
  379SOL    HW1 1181   2.409   1.099   2.905 -1.2889  0.6501  0.1593
  379SOL    HW2 1182   2.538   1.090   2.953  1.9933 -1.2875  2.6026
  380SOL     OW 1183   2.769   1.615   1.185 -0.6130  0.1006  0.0352
  380SOL    HW1 1184   2.746   1.588   1.278 -0.2863 -0.7024 -2.2856
  380SOL    HW2 1185   2.704   1.567   1.136  3.3561  2.6294  2.3856
  381SOL     OW 1186   2.751   1.692   2.382 -0.4160 -0.3227  0.0920
  381SOL    HW1 1187   2.661   1.684   2.352 -1.9380 -2.2446  1.5057
  381SOL    HW2 1188   2.758   1.789   2.367 -0.3927  1.7649  1.4608
  382SOL     OW 1189   2.049   2.104   1.002  0.5876  0.6337  0.0351
  382SOL    HW1 1190   1.984   2.052   0.956 -1.2230 -0.8512 -0.7922
  382SOL    HW2 1191   2.115   2.047   1.028 -0.1505  0.9720  0.8104
  383SOL     OW 1192   0.221   0.553   2.476 -0.5548  0.4869  0.1483
  383SOL    HW1 1193   0.288   0.611   2.444 -3.0399 -0.6684 -3.9609
  383SOL    HW2 1194   0.268   0.476   2.504  1.7475 -3.6524  1.5917
  384SOL     OW 1195   2.695   2.508   1.951 -0.3131  0.2042  0.1506
  384SOL    HW1 1196   2.736   2.528   2.034  2.5854  0.3564  0.2747
  384SOL    HW2 1197   2.764   2.459   1.903  0.6452 -0.0168  1.4140
  385SOL     OW 1198   0.161   1.707   0.789 -0.7559  0.1339 -0.5120
  385SOL    HW1 1199   0.225   1.642   0.815 -0.4146 -2.6292 -0.2714
  385SOL    HW2 1200   0.103   1.686   0.855 -1.4695  0.8138 -0.5589
  386SOL     OW 1201   2.877   2.564   2.576  0.9110  0.0289  0.4599
  386SOL    HW1 1202   2.811   2.505   2.606 -1.0576  0.3524  1.2440
  386SOL    HW2 1203   2.936   2.550   2.647  2.2262 -1.4623 -0.5257
  387SOL     OW 1204   2.750   0.368   2.381 -0.0419 -0.1484 -0.2137
  387SOL    HW1 1205   2.757   0.428   2.309 -0.6107  0.0186 -3.3375
  387SOL    HW2 1206   2.816   0.311   2.349  1.4572 -2.0092  0.1524
  388SOL     OW 1207   0.282   0.526   0.967 -0.2533  1.2354 -0.0334
  388SOL    HW1 1208   0.181   0.523   0.952  0.1453 -2.2420 -3.7109
  388SOL    HW2 1209   0.292   0.473   1.054  2.0385 -3.0591  1.4132
  389SOL     OW 1210   1.338   1.843   2.675 -0.6085  0.1859 -0.4338
  389SOL    HW1 1211   1.358   1.909   2.606 -0.4406 -1.0259  1.6570
  389SOL    HW2 1212   1.406   1.857   2.738 -0.0874  1.0631 -3.1780
  390SOL     OW 1213   2.959   1.130   2.300 -0.2969 -0.1572 -0.4948
  390SOL    HW1 1214   3.002   1.071   2.242 -0.6478 -1.7847 -2.1598
  390SOL    HW2 1215   2.933   1.202   2.240 -1.0657  0.7929 -1.5253
  391SOL     OW 1216   2.270   2.918   1.181  0.0717 -0.0391 -0.6517
  391SOL    HW1 1217   2.272   2.986   1.116  2.3469  1.3277  2.1231
  391SOL    HW2 1218   2.370   2.922   1.205 -0.2124  1.1211 -2.3319
  392SOL     OW 1219   2.859   1.808   1.745 -0.0615 -0.0789  0.4047
  392SOL    HW1 1220   2.786   1.869   1.711  2.5568  0.6676 -3.5546
  392SOL    HW2 1221   2.915   1.819   1.670 -2.6010  3.5219  3.3748
  393SOL     OW 1222   0.587   2.041   2.384 -0.2874 -1.0938 -0.1940
  393SOL    HW1 1223   0.576   2.130   2.424  0.4715 -0.1754  1.4183
  393SOL    HW2 1224   0.585   1.987   2.467 -1.6248  0.2456 -0.6060
  394SOL     OW 1225   2.511   1.773   0.001  0.0515 -0.0879  0.0120
  394SOL    HW1 1226   2.414   1.794  -0.014 -2.7190 -0.0838 -2.3545
  394SOL    HW2 1227   2.527   1.725  -0.084  2.5262 -0.5721  2.4464
  395SOL     OW 1228   2.083   0.925   0.307  0.0516  0.4717  0.1962
  395SOL    HW1 1229   2.128   0.861   0.249  0.4757 -1.9619 -4.5209
  395SOL    HW2 1230   2.086   1.003   0.256  0.6083 -3.3099 -2.6268
  396SOL     OW 1231   2.096   1.508   2.617  0.3876  0.8194  0.1017
  396SOL    HW1 1232   2.012   1.550   2.657  0.5380  0.6303  4.8328
  396SOL    HW2 1233   2.137   1.462   2.694 -0.6239  1.1193  0.5723
  397SOL     OW 1234   0.704   0.489   0.682 -0.7565 -0.1867 -0.3896
  397SOL    HW1 1235   0.669   0.556   0.750 -0.0056 -1.0399 -1.9698
  397SOL    HW2 1236   0.626   0.439   0.654  0.0481 -1.1272 -1.0240
  398SOL     OW 1237   0.762   2.338   2.473  0.7283  0.1223  0.0327
  398SOL    HW1 1238   0.860   2.332   2.451  0.9932  0.1781 -3.9285
  398SOL    HW2 1239   0.748   2.259   2.527 -1.2380 -3.3199 -4.9239
  399SOL     OW 1240   0.521   2.070   1.202  0.2921  0.4898 -0.5430
  399SOL    HW1 1241   0.595   2.135   1.198  3.5898 -2.0521  1.0317
  399SOL    HW2 1242   0.491   2.085   1.112 -0.2542 -1.1047  2.1617
  400SOL     OW 1243   2.722   2.030   1.831  0.2050  0.1402 -0.2893
  400SOL    HW1 1244   2.665   1.956   1.849 -1.7878  0.8313  1.1124
  400SOL    HW2 1245   2.785   2.011   1.903  2.6979 -1.3514 -2.3292
  401SOL     OW 1246   1.495   2.570   0.571 -0.1005  0.1328 -0.3220
  401SOL    HW1 1247   1.584   2.595   0.594 -2.3559 -1.2103 -1.3839
  401SOL    HW2 1248   1.454   2.567   0.657 -1.6456 -0.3932 -1.3798
  402SOL     OW 1249   1.475   0.486   1.976 -0.5521  0.7135  0.0439
  402SOL    HW1 1250   1.534   0.504   2.054 -1.8984 -1.4136 -0.9217
  402SOL    HW2 1251   1.517   0.518   1.903 -1.3107 -0.0828  1.1262
  403SOL     OW 1252   1.396   1.437   0.600  0.1632  0.2429  0.3268
  403SOL    HW1 1253   1.419   1.404   0.686 -0.1363 -0.9421 -0.2381
  403SOL    HW2 1254   1.448   1.384   0.541 -0.1119  1.3456  0.8750
  404SOL     OW 1255   1.177   1.291   0.561 -0.0427 -1.0240  0.2485
  404SOL    HW1 1256   1.229   1.212   0.581 -2.1974 -1.7848 -0.3045
  404SOL    HW2 1257   1.251   1.358   0.557  1.8084  1.7296 -1.5057
  405SOL     OW 1258   1.258   0.207   0.853  0.5611  0.0214 -0.2068
  405SOL    HW1 1259   1.231   0.115   0.842 -2.4087 -1.5397  0.9306
  405SOL    HW2 1260   1.356   0.186   0.874 -0.6828 -0.9409  0.3942
  406SOL     OW 1261   2.022   0.426   1.696 -0.0928  0.2158 -0.0324
  406SOL    HW1 1262   1.931   0.444   1.733  1.0741 -0.7659  3.0123
  406SOL    HW2 1263   2.074   0.436   1.784 -0.4157 -1.3062  0.6128
  407SOL     OW 1264   1.677   2.324   0.342  0.8844  0.0097  0.2024
  407SOL    HW1 1265   1.704   2.232   0.316  2.3683  1.1900 -0.6473
  407SOL    HW2 1266   1.759   2.360   0.384 -3.3247 -0.7846  2.0474
  408SOL     OW 1267   2.615   1.885   2.159 -0.3656  0.0936 -0.5578
  408SOL    HW1 1268   2.705   1.904   2.138  0.4774 -0.0256 -0.7963
  408SOL    HW2 1269   2.588   1.961   2.222  0.5247  0.9502  1.1930
  409SOL     OW 1270   0.494   1.931   1.636  0.1915  0.2430 -0.4929
  409SOL    HW1 1271   0.408   1.888   1.645  0.1448  0.3041 -0.3045
  409SOL    HW2 1272   0.494   1.983   1.721  1.1177  2.3859  2.5717
  410SOL     OW 1273   2.813   2.330   2.877 -0.4384  0.2773 -0.8302
  410SOL    HW1 1274   2.716   2.351   2.857 -2.6181  2.2485 -1.2453
  410SOL    HW2 1275   2.799   2.281   2.966 -2.1946  1.7377  2.5885
  411SOL     OW 1276   0.889   0.592   0.929 -0.1253  0.4675 -0.1509
  411SOL    HW1 1277   0.901   0.523   0.856  4.7997  0.1230  0.5354
  411SOL    HW2 1278   0.916   0.677   0.893 -1.3652 -0.1073 -2.3089
  412SOL     OW 1279   0.642   0.825   0.293  1.6378 -0.3858  0.1661
  412SOL    HW1 1280   0.585   0.843   0.375  0.2161 -0.0075  0.0500
  412SOL    HW2 1281   0.681   0.736   0.327  0.8518 -2.0940  1.5147
  413SOL     OW 1282   2.616   0.092   0.835  0.1333 -0.5507  0.0406
  413SOL    HW1 1283   2.647   0.161   0.896  0.6484  0.5431  0.0375
  413SOL    HW2 1284   2.687   0.089   0.775  0.7153 -0.9781  0.5156
  414SOL     OW 1285   2.839   0.575   1.639 -0.4292  1.1365  0.0345
  414SOL    HW1 1286   2.759   0.516   1.633  1.7618 -1.4143  4.1501
  414SOL    HW2 1287   2.910   0.509   1.643 -1.3247 -1.6488  1.6387
  415SOL     OW 1288   2.375   2.704   0.086  0.7970  0.4416  0.0174
  415SOL    HW1 1289   2.403   2.766   0.147  0.5053  1.0979  1.3316
  415SOL    HW2 1290   2.280   2.694   0.109  1.2892  0.5113  3.6060
  416SOL     OW 1291   1.890   1.017   1.922  0.2188 -0.2182  0.6670
  416SOL    HW1 1292   1.915   0.932   1.885 -1.4869  1.6548 -1.7115
  416SOL    HW2 1293   1.815   0.991   1.978  1.1718 -3.3923  1.8159
  417SOL     OW 1294   0.648   1.626   1.774  0.0751  1.4917 -0.4208
  417SOL    HW1 1295   0.577   1.675   1.816  1.0546  1.9446  0.2821
  417SOL    HW2 1296   0.687   1.576   1.841  0.5902  1.0498 -1.4348
  418SOL     OW 1297   0.112   0.671   2.898  0.3549  0.5412  0.6695
  418SOL    HW1 1298   0.054   0.621   2.964 -0.6884  2.1158 -1.1257
  418SOL    HW2 1299   0.142   0.750   2.949 -0.4235  0.4589  1.6115
  419SOL     OW 1300   2.463   2.065   1.232  0.0895 -0.2110 -0.0653
  419SOL    HW1 1301   2.560   2.035   1.219 -3.4267 -1.2834  2.3722
  419SOL    HW2 1302   2.480   2.160   1.207  0.6171 -0.2485 -0.7101
  420SOL     OW 1303   0.033   2.272   0.153  0.2179 -0.2725  0.5689
  420SOL    HW1 1304  -0.049   2.232   0.115  3.5827 -0.9885 -0.1207
  420SOL    HW2 1305   0.024   2.363   0.123 -0.9985 -0.8918 -1.7512
  421SOL     OW 1306   1.010   0.738   0.509 -0.5355  0.5180 -0.0138
  421SOL    HW1 1307   1.011   0.705   0.420  1.4576 -2.1317 -0.9380
  421SOL    HW2 1308   0.954   0.813   0.499  1.8795  1.4140 -0.5069
  422SOL     OW 1309   1.346   1.114   0.713 -0.6755  0.0145 -0.9958
  422SOL    HW1 1310   1.439   1.097   0.687 -0.6505  1.0850 -0.6962
  422SOL    HW2 1311   1.328   1.025   0.754 -3.8968 -1.1620 -0.1582
  423SOL     OW 1312   0.102   2.599   1.204 -0.5388 -0.5008 -0.2936
  423SOL    HW1 1313   0.193   2.648   1.195 -3.3239  0.9640  1.2448
  423SOL    HW2 1314   0.066   2.665   1.262  0.3372  0.1883  3.0122
  424SOL     OW 1315   2.210   2.035   2.276 -0.7365  0.3726  0.2888
  424SOL    HW1 1316   2.258   2.022   2.353 -0.5357  0.9082  3.3287
  424SOL    HW2 1317   2.160   2.119   2.296  1.0822 -1.7904 -1.9975
  425SOL     OW 1318   1.909   2.167   1.943 -0.3262  0.2036 -0.2241
  425SOL    HW1 1319   1.836   2.128   1.994  0.0616  2.5602 -2.3408
  425SOL    HW2 1320   1.962   2.094   1.906 -0.7896  0.6797  0.0269
  426SOL     OW 1321   0.616   0.905   2.734 -0.2853 -0.1123  0.0168
  426SOL    HW1 1322   0.704   0.936   2.732 -0.7648 -1.8905  0.1174
  426SOL    HW2 1323   0.595   0.943   2.639  1.5779  0.3049 -3.5467
  427SOL     OW 1324   2.112   1.567   0.522  0.9093  0.1291 -0.4515
  427SOL    HW1 1325   2.123   1.655   0.470  1.5315  3.2010  1.7259
  427SOL    HW2 1326   2.031   1.530   0.484 -4.0718  1.9699 -0.4668
  428SOL     OW 1327   2.858   0.849   2.071 -1.0054  0.2468  0.7997
  428SOL    HW1 1328   2.821   0.846   1.979  2.3411  0.6122 -0.2718
  428SOL    HW2 1329   2.942   0.894   2.044  2.6512 -0.5041 -0.7361
  429SOL     OW 1330   0.990   2.298   0.666  0.0249 -0.3482 -0.0786
  429SOL    HW1 1331   1.054   2.230   0.686  2.5240  1.0559  0.1361
  429SOL    HW2 1332   0.921   2.246   0.624  2.6384 -3.4669 -3.9781
  430SOL     OW 1333   1.287   0.499   2.997  0.1006 -0.4226 -0.3960
  430SOL    HW1 1334   1.228   0.572   3.010  0.4406 -0.0026 -1.5654
  430SOL    HW2 1335   1.288   0.503   2.894 -3.7625  0.1541 -0.5520
  431SOL     OW 1336   0.535   2.150   0.095  0.0275  0.1816  0.0084
  431SOL    HW1 1337   0.579   2.186   0.014 -3.4455 -1.1736 -2.5642
  431SOL    HW2 1338   0.448   2.192   0.074  0.3937 -2.2278  0.6003
  432SOL     OW 1339   2.468   1.372   0.761 -0.5713 -0.7543  0.5516
  432SOL    HW1 1340   2.567   1.367   0.764  0.9313  2.2177 -1.4754
  432SOL    HW2 1341   2.428   1.336   0.842 -2.8311  1.3486  0.4331
  433SOL     OW 1342   1.229   2.783   2.637  0.5264  0.3887 -0.5360
  433SOL    HW1 1343   1.279   2.779   2.550 -1.3559  5.5236 -3.0546
  433SOL    HW2 1344   1.162   2.715   2.615  0.2124  0.4747 -1.8552
  434SOL     OW 1345   0.878   1.950   0.622 -0.5585  0.7287 -0.5934
  434SOL    HW1 1346   0.965   1.912   0.630  1.3324  1.6163 -1.1047
  434SOL    HW2 1347   0.886   2.010   0.698  0.0695 -0.4975 -3.4570
  435SOL     OW 1348   2.324   2.306   2.446  0.9503  0.7585 -0.4151
  435SOL    HW1 1349   2.308   2.215   2.482 -1.5323 -0.7914  0.8837
  435SOL    HW2 1350   2.386   2.288   2.376  0.1754 -3.2527 -1.1489
  436SOL     OW 1351   0.598   0.214   2.869 -0.4098  0.1040 -0.8399
  436SOL    HW1 1352   0.629   0.314   2.879  2.0008  3.5959 -2.6366
  436SOL    HW2 1353   0.681   0.168   2.888  2.0043  0.1669 -1.7749
  437SOL     OW 1354   2.968   0.494   0.677 -0.2143  0.3041 -0.0117
  437SOL    HW1 1355   2.890   0.448   0.654 -1.7569 -3.6816  2.2895
  437SOL    HW2 1356   2.972   0.475   0.773 -3.1697  3.8680  0.5929
  438SOL     OW 1357   0.617   1.119   1.060 -0.0781  0.1125 -0.2788
  438SOL    HW1 1358   0.519   1.119   1.058  1.3269 -1.6708 -1.6817
  438SOL    HW2 1359   0.639   1.195   1.017 -1.0049 -1.2395 -1.6459
  439SOL     OW 1360   2.105   2.911   2.848 -0.1703 -0.2542  0.1439
  439SOL    HW1 1361   2.066   2.823   2.837  1.6240  0.3760  1.2336
  439SOL    HW2 1362   2.096   2.931   2.942 -1.9695  1.7031 -0.2618
  440SOL     OW 1363   0.977   1.967   1.658 -0.3018 -0.4038  0.2789
  440SOL    HW1 1364   0.991   1.882   1.699 -2.3899 -1.6082 -2.5430
  440SOL    HW2 1365   0.951   1.950   1.565 -1.2592 -0.3477  0.7376
  441SOL     OW 1366   0.807   0.953   1.361  0.1384 -0.8080  0.0150
  441SOL    HW1 1367   0.728   1.011   1.366 -0.4741  2.1107 -1.4051
  441SOL    HW2 1368   0.856   0.986   1.440 -4.5373 -1.6653 -3.2138
  442SOL     OW 1369   0.767   2.133   1.805  0.6404  0.1995  0.1140
  442SOL    HW1 1370   0.704   2.194   1.762 -1.9781  2.4424 -2.4614
  442SOL    HW2 1371   0.829   2.097   1.741 -1.5135 -0.3750  0.9108
  443SOL     OW 1372   0.755   0.741   0.024  1.0221  0.0398  1.0268
  443SOL    HW1 1373   0.685   0.791   0.064  0.7451  0.6824 -1.4034
  443SOL    HW2 1374   0.820   0.817   0.016  1.4934  3.0086 -1.4727
  444SOL     OW 1375   0.968   1.473   1.839  0.2068 -0.1096 -0.6266
  444SOL    HW1 1376   1.071   1.476   1.861  1.1439 -0.2711 -1.8333
  444SOL    HW2 1377   0.968   1.405   1.771 -1.5582 -1.9083  1.4127
  445SOL     OW 1378   2.370   2.952   0.857  0.7088  0.6203  0.2159
  445SOL    HW1 1379   2.428   3.031   0.882 -1.5856  4.1741  1.4455
  445SOL    HW2 1380   2.436   2.881   0.873 -1.2156  0.2905  0.8359
  446SOL     OW 1381   1.714   0.311   0.968 -0.6317 -0.5880 -0.2507
  446SOL    HW1 1382   1.712   0.352   0.882  2.4011  0.2911  0.4588
  446SOL    HW2 1383   1.798   0.249   0.958  4.2623 -0.3979  0.0230
  447SOL     OW 1384   2.330   1.359   1.046 -0.3708 -0.4133  0.8918
  447SOL    HW1 1385   2.264   1.380   0.987 -0.0214  1.5191  1.8031
  447SOL    HW2 1386   2.305   1.350   1.138  1.9624 -2.0956 -1.7023
  448SOL     OW 1387   0.470   1.900   2.911  0.9028  0.2209 -0.9127
  448SOL    HW1 1388   0.442   1.994   2.923  0.3067 -0.2574  3.4663
  448SOL    HW2 1389   0.401   1.861   2.965 -1.0445  3.3908  0.3726
  449SOL     OW 1390   0.600   1.313   2.881  0.2371  0.3081 -0.2544
  449SOL    HW1 1391   0.510   1.291   2.875 -0.6938 -0.5662 -1.6596
  449SOL    HW2 1392   0.632   1.263   2.802 -2.2074  0.1474  1.8809
  450SOL     OW 1393   2.407   1.674   2.245 -0.0806 -0.8928 -0.6212
  450SOL    HW1 1394   2.449   1.584   2.265  0.6438  2.2737  1.0225
  450SOL    HW2 1395   2.485   1.735   2.224  1.9908  0.1348 -1.5711
  451SOL     OW 1396   1.306   2.280   1.209  0.2774 -0.0411  0.0750
  451SOL    HW1 1397   1.239   2.346   1.209  1.5766 -0.5276 -0.0289
  451SOL    HW2 1398   1.279   2.220   1.275  3.2394  2.5013 -1.2657
  452SOL     OW 1399   1.931   0.271   2.859  0.2162 -0.4714 -0.1910
  452SOL    HW1 1400   1.929   0.248   2.955 -0.8855 -0.2723 -1.1335
  452SOL    HW2 1401   2.016   0.230   2.825 -1.9717  1.3296  0.8276
  453SOL     OW 1402   2.627   1.053   1.645 -0.6313 -0.1114 -0.5974
  453SOL    HW1 1403   2.662   1.124   1.588  1.8929  4.0529 -3.2737
  453SOL    HW2 1404   2.581   1.098   1.716  0.4435 -3.6756  1.6422
  454SOL     OW 1405   0.749   0.431   1.264  0.4250 -0.5963 -0.1598
  454SOL    HW1 1406   0.763   0.530   1.285  3.1667  1.5007 -1.1625
  454SOL    HW2 1407   0.688   0.446   1.184  1.1849 -0.0219 -0.3707
  455SOL     OW 1408   2.563   2.326   0.005  0.1710  0.0663  0.1203
  455SOL    HW1 1409   2.558   2.236   0.041  1.1154 -0.6802 -1.0334
  455SOL    HW2 1410   2.473   2.332  -0.039  1.4816 -0.2199 -0.1085
  456SOL     OW 1411   1.689   0.258   1.695  0.4279  0.2172  0.1870
  456SOL    HW1 1412   1.763   0.234   1.641 -0.1954 -2.3465 -1.9701
  456SOL    HW2 1413   1.618   0.266   1.632  3.4586  2.3423  0.4189
  457SOL     OW 1414   1.545   2.125   1.060  0.3581  0.2478  0.0878
  457SOL    HW1 1415   1.622   2.081   1.102  0.1940 -1.3137 -1.8543
  457SOL    HW2 1416   1.507   2.181   1.127 -1.1898 -0.2788 -1.1600
  458SOL     OW 1417   1.378   1.723   1.258  0.5041 -0.1214  0.1134
  458SOL    HW1 1418   1.365   1.644   1.308  0.0125 -0.2795  0.0109
  458SOL    HW2 1419   1.436   1.700   1.183  0.6631 -1.8375  2.9684
  459SOL     OW 1420   1.597   2.709   2.499  0.0198  0.2466  0.2470
  459SOL    HW1 1421   1.656   2.761   2.555  0.7834 -1.6171 -1.4276
  459SOL    HW2 1422   1.511   2.741   2.515 -3.5736 -1.6147  3.0699
  460SOL     OW 1423   2.365   0.941   2.270  0.3105  0.0467 -0.3178
  460SOL    HW1 1424   2.403   0.905   2.354  0.0623  2.7088 -0.2467
  460SOL    HW2 1425   2.443   0.984   2.231 -2.0500 -3.4086  3.4327
  461SOL     OW 1426   2.997   1.474   1.138  0.4910 -0.2830 -0.5089
  461SOL    HW1 1427   3.007   1.401   1.207  1.2703 -1.2979  0.8418
  461SOL    HW2 1428   2.932   1.530   1.192 -0.9143 -1.7081  1.6764
  462SOL     OW 1429   1.165   2.886   0.892  0.3689 -0.0474 -0.1832
  462SOL    HW1 1430   1.086   2.911   0.941 -3.4117 -4.5563 -2.1016
  462SOL    HW2 1431   1.199   2.808   0.946 -0.5600  0.0625  1.2672
  463SOL     OW 1432   0.197   2.652   2.068 -0.1064 -0.6380 -0.3391
  463SOL    HW1 1433   0.150   2.597   1.999  1.0035 -0.8975  2.5379
  463SOL    HW2 1434   0.159   2.611   2.148  0.9624  0.2588  2.0117
  464SOL     OW 1435   2.805   0.995   2.786  0.3623 -0.0288  0.9472
  464SOL    HW1 1436   2.781   0.937   2.859 -2.4479  1.0450  1.5590
  464SOL    HW2 1437   2.811   0.925   2.714  3.4726 -0.7280 -0.4121
  465SOL     OW 1438   1.701   1.685   1.493 -0.2981  0.7972 -0.4613
  465SOL    HW1 1439   1.754   1.650   1.419 -2.3176 -1.1817 -2.8703
  465SOL    HW2 1440   1.616   1.691   1.459  1.8187  2.5626  2.5692
  466SOL     OW 1441   0.586   0.402   1.033  0.7157 -0.0296 -0.4759
  466SOL    HW1 1442   0.574   0.493   1.004  2.2514  1.6768 -2.4896
  466SOL    HW2 1443   0.503   0.399   1.092  0.1504 -1.5292  4.0054
  467SOL     OW 1444   1.304   1.890   1.650  0.2118 -0.2779  0.3271
  467SOL    HW1 1445   1.326   1.832   1.719 -3.4348 -0.0960  1.3059
  467SOL    HW2 1446   1.234   1.841   1.613  1.4822 -2.9938 -2.3054
  468SOL     OW 1447   1.850   2.559   2.562  0.4350  0.6950  0.0186
  468SOL    HW1 1448   1.860   2.469   2.523 -2.4037 -2.6068  0.1150
  468SOL    HW2 1449   1.896   2.617   2.489  0.3500 -0.5757 -0.7758
  469SOL     OW 1450   1.038   2.585   2.491  0.3011 -0.3810  0.4041
  469SOL    HW1 1451   1.011   2.512   2.423 -1.4687 -2.9856 -2.6052
  469SOL    HW2 1452   1.036   2.536   2.575  1.8716  2.4960 -1.0776
  470SOL     OW 1453   0.824   2.367   0.347  0.3791 -0.2413  0.3762
  470SOL    HW1 1454   0.777   2.300   0.403  2.2168 -2.2018  0.9107
  470SOL    HW2 1455   0.864   2.320   0.278  4.1710  1.2359  1.4937
  471SOL     OW 1456   1.521   1.729   0.899 -0.4917  0.2595 -0.6316
  471SOL    HW1 1457   1.481   1.816   0.881 -1.7103  1.8355  1.6551
  471SOL    HW2 1458   1.448   1.671   0.914  0.8108  1.2043 -0.5241
  472SOL     OW 1459   2.207   2.951   0.361  0.1641  0.1531  1.0418
  472SOL    HW1 1460   2.255   2.890   0.419 -2.9312 -0.3581 -2.4312
  472SOL    HW2 1461   2.221   3.016   0.422 -2.9518  1.9464  0.9024
  473SOL     OW 1462   1.353   2.870   1.729  0.1519 -0.0322 -0.0655
  473SOL    HW1 1463   1.313   2.836   1.808 -0.3240 -0.7016  0.7701
  473SOL    HW2 1464   1.366   2.783   1.685 -2.3426 -2.8628 -1.5359
  474SOL     OW 1465   1.630   1.530   2.945  0.3260 -0.8939 -0.3931
  474SOL    HW1 1466   1.670   1.460   2.893  1.1261  0.5172 -0.1578
  474SOL    HW2 1467   1.707   1.581   2.958 -0.3230 -2.9107  2.4011
  475SOL     OW 1468   0.912   0.968   2.747  0.1994  0.0555  0.2228
  475SOL    HW1 1469   0.969   0.903   2.708  2.5103  1.4392  2.8506
  475SOL    HW2 1470   0.925   0.953   2.845  2.2314 -1.1540  0.9563
  476SOL     OW 1471   0.872   1.023   1.613  0.6083 -0.6382  0.5629
  476SOL    HW1 1472   0.938   0.965   1.657 -3.7270 -1.3931  3.2982
  476SOL    HW2 1473   0.898   1.112   1.629 -0.5970 -0.3968 -2.4593
  477SOL     OW 1474   1.420   0.835   1.044  0.0677 -0.0898  0.2043
  477SOL    HW1 1475   1.445   0.798   0.955  1.7105  4.5807  1.7075
  477SOL    HW2 1476   1.492   0.802   1.103 -2.6230 -0.4318 -0.3643
  478SOL     OW 1477   2.853   1.299   1.786 -0.2582  0.2597  0.6632
  478SOL    HW1 1478   2.949   1.278   1.783  3.8838 -2.5277 -2.0323
  478SOL    HW2 1479   2.838   1.334   1.690  3.5598  0.1909 -1.5436
  479SOL     OW 1480   2.762   1.016   0.930  0.0889  0.1409  0.1128
  479SOL    HW1 1481   2.776   1.082   1.007  1.0581 -2.7674 -2.5238
  479SOL    HW2 1482   2.797   1.064   0.857 -1.2887 -1.0470  0.6914
  480SOL     OW 1483   0.392   0.425   1.445 -0.8314 -0.0643 -0.1964
  480SOL    HW1 1484   0.455   0.501   1.477 -0.4053 -3.1481  3.8901
  480SOL    HW2 1485   0.447   0.360   1.481  1.1267  1.0502  0.8509
  481SOL     OW 1486   0.384   1.066   0.341  0.1186  0.1345  0.5015
  481SOL    HW1 1487   0.350   0.984   0.376 -0.9762 -5.0754 -0.4779
  481SOL    HW2 1488   0.448   1.033   0.277 -0.0933  3.1885 -2.4388
  482SOL     OW 1489   2.244   1.495   1.537 -0.2680 -0.1424 -0.2056
  482SOL    HW1 1490   2.295   1.517   1.616 -0.0275 -2.6686 -2.1477
  482SOL    HW2 1491   2.177   1.573   1.549 -1.1631 -0.3444 -2.0750
  483SOL     OW 1492   1.376   2.252   2.764 -0.1886  0.6595  0.1589
  483SOL    HW1 1493   1.391   2.325   2.701 -1.8251 -2.1507  0.4367
  483SOL    HW2 1494   1.383   2.174   2.697 -1.7842 -3.1718  1.0099
  484SOL     OW 1495   0.044   1.232   2.909 -0.1063  0.6014 -0.1809
  484SOL    HW1 1496  -0.026   1.219   2.848 -2.4413  1.2465  0.4184
  484SOL    HW2 1497   0.028   1.326   2.931 -0.7464 -0.1431 -1.3503
  485SOL     OW 1498   1.001   0.575   1.869  0.3269  0.1958  0.5162
  485SOL    HW1 1499   0.928   0.634   1.893 -0.7922  1.6462  0.6288
  485SOL    HW2 1500   0.982   0.547   1.777 -0.3401  2.5139  2.5091
  486SOL     OW 1501   1.296   0.432   0.710  0.6800 -0.0802  0.0258
  486SOL    HW1 1502   1.260   0.344   0.735 -1.4145  1.4983 -1.7147
  486SOL    HW2 1503   1.279   0.467   0.797  0.5839 -0.1585 -2.0804
  487SOL     OW 1504   2.778   2.255   0.784 -1.0881  0.1538  0.2174
  487SOL    HW1 1505   2.718   2.257   0.703  0.6842  1.1147  0.7428
  487SOL    HW2 1506   2.806   2.170   0.780  1.4526  1.4726 -0.8288
  488SOL     OW 1507   1.420   2.391   0.374 -0.8493 -0.3969 -0.1878
  488SOL    HW1 1508   1.444   2.453   0.445 -0.7056 -0.9862  1.9096
  488SOL    HW2 1509   1.516   2.384   0.351 -0.9956  1.4051 -0.1669
  489SOL     OW 1510   2.007   0.118   2.564 -0.6884 -0.9597  0.0141
  489SOL    HW1 1511   2.042   0.049   2.616  0.6387  0.7729  1.4459
  489SOL    HW2 1512   2.058   0.116   2.484 -0.7723 -0.0799  1.0628
  490SOL     OW 1513   1.013   1.306   2.297 -0.3223 -0.5081 -0.1871
  490SOL    HW1 1514   0.949   1.233   2.284 -3.3550 -0.2819 -0.4282
  490SOL    HW2 1515   1.052   1.258   2.376  1.8421  3.4545  0.1334
  491SOL     OW 1516   2.563   2.467   0.715  0.7929 -0.3829  0.6354
  491SOL    HW1 1517   2.625   2.435   0.649 -4.0113 -1.5837  0.4044
  491SOL    HW2 1518   2.496   2.393   0.704 -2.3820  3.7038  1.4700
  492SOL     OW 1519   1.909   2.788   1.695  0.5368  0.0771 -0.3451
  492SOL    HW1 1520   1.917   2.771   1.598 -1.8707 -0.1383  0.0678
  492SOL    HW2 1521   1.966   2.873   1.690  3.2676 -0.4774  1.0897
  493SOL     OW 1522   2.974   0.558   0.341 -0.0780  0.0548 -0.7012
  493SOL    HW1 1523   2.998   0.515   0.254 -2.6072  0.6803  1.6439
  493SOL    HW2 1524   2.890   0.508   0.353  0.4921  1.7811  3.7598
  494SOL     OW 1525   1.283   0.895   1.966  0.1559  0.4744 -0.1087
  494SOL    HW1 1526   1.200   0.851   1.982  0.9419 -1.7961  0.0750
  494SOL    HW2 1527   1.263   0.970   2.026  1.0718 -2.0655  0.0835
  495SOL     OW 1528   0.749   0.709   1.167 -0.3353  0.4097  0.2530
  495SOL    HW1 1529   0.806   0.736   1.246  0.8372  0.7463 -0.1540
  495SOL    HW2 1530   0.801   0.692   1.083 -0.4555  0.7120 -0.9540
  496SOL     OW 1531   0.877   2.911   2.703 -0.1645 -0.0404 -0.0749
  496SOL    HW1 1532   0.948   2.872   2.759  3.1549 -0.5012  0.5847
  496SOL    HW2 1533   0.860   2.984   2.767  2.4332 -0.3609  0.0869
  497SOL     OW 1534   1.695   0.002   0.188  0.4420 -0.3106 -0.3805
  497SOL    HW1 1535   1.618  -0.019   0.233  2.4269 -0.0974 -1.3561
  497SOL    HW2 1536   1.769  -0.049   0.233  0.6666  1.9115 -2.8912
  498SOL     OW 1537   0.766   1.275   2.003 -0.3283 -0.7131  0.1201
  498SOL    HW1 1538   0.700   1.250   2.066 -0.6519  0.4044  1.8129
  498SOL    HW2 1539   0.725   1.362   1.976 -4.2190 -0.2998 -1.3456
  499SOL     OW 1540   2.041   2.242   2.197  0.4144  0.0554  0.7881
  499SOL    HW1 1541   2.114   2.302   2.166 -1.0408  0.6790  0.8380
  499SOL    HW2 1542   2.031   2.186   2.114  2.2977  1.3178  0.9097
  500SOL     OW 1543   0.597   0.611   2.714 -0.1045  0.7368  0.0658
  500SOL    HW1 1544   0.618   0.703   2.712 -1.5148  1.5119 -0.7013
  500SOL    HW2 1545   0.588   0.588   2.615 -1.6514  2.5321 -3.6682
  501SOL     OW 1546   2.974   2.909   0.596  0.2915 -0.4528 -0.1948
  501SOL    HW1 1547   3.055   2.964   0.577  0.0470  1.3989  4.6559
  501SOL    HW2 1548   3.010   2.845   0.656 -0.3205 -2.6363  0.4496
  502SOL     OW 1549   1.073   1.626   1.557  0.6163  0.0677  0.2344
  502SOL    HW1 1550   1.102   1.534   1.549  2.0392 -3.8533  0.5676
  502SOL    HW2 1551   1.061   1.633   1.647 -0.5552  1.0654 -1.5813
  503SOL     OW 1552   0.245   0.199   1.852  0.4191  0.4164 -0.7741
  503SOL    HW1 1553   0.193   0.122   1.825  1.9272 -4.1030 -2.5952
  503SOL    HW2 1554   0.204   0.232   1.934 -0.4773  1.1437 -3.0610
  504SOL     OW 1555   0.515   0.529   2.437 -0.9043  0.3249 -0.0435
  504SOL    HW1 1556   0.601   0.493   2.403 -0.0972  0.1349  0.6352
  504SOL    HW2 1557   0.505   0.619   2.384 -3.2941 -2.1217 -0.9017
  505SOL     OW 1558   0.504   1.642   0.191 -0.1904  0.6241  0.2347
  505SOL    HW1 1559   0.594   1.646   0.210 -4.1459 -1.4179 -0.3322
  505SOL    HW2 1560   0.463   1.718   0.233  0.7788  0.6392  0.7533
  506SOL     OW 1561   2.230   2.422   0.967 -0.0396  0.2627  0.1654
  506SOL    HW1 1562   2.250   2.518   0.977 -2.2914 -0.0423 -3.3557
  506SOL    HW2 1563   2.151   2.402   1.016 -1.2107  0.5431 -2.3407
  507SOL     OW 1564   0.444   2.920   0.757 -0.1219  0.1076  0.5026
  507SOL    HW1 1565   0.417   2.981   0.827  0.4167 -1.8140  2.1217
  507SOL    HW2 1566   0.419   2.824   0.784  2.2899  1.6383 -2.5658
  508SOL     OW 1567   0.671   0.144   2.290 -0.7581  0.3834 -0.3846
  508SOL    HW1 1568   0.682   0.203   2.213  3.3115 -0.8126  1.6817
  508SOL    HW2 1569   0.621   0.070   2.252 -1.5390 -0.5135  1.7436
  509SOL     OW 1570   2.233   1.802   2.924 -0.1484 -0.8268  0.8715
  509SOL    HW1 1571   2.237   1.803   2.825  3.5798  0.0925 -0.7067
  509SOL    HW2 1572   2.147   1.818   2.944  2.4777 -0.0417  1.7430
  510SOL     OW 1573   0.592   1.339   2.384  0.5827  0.5799 -0.4704
  510SOL    HW1 1574   0.563   1.421   2.428  1.2374  4.0319  0.5739
  510SOL    HW2 1575   0.530   1.340   2.309 -0.7146 -0.0413  0.3842
  511SOL     OW 1576   2.892   2.337   1.843 -0.0922  0.2539 -0.2413
  511SOL    HW1 1577   2.802   2.307   1.816 -0.0365 -4.3749  0.5642
  511SOL    HW2 1578   2.959   2.299   1.780  0.1730 -2.3093  0.8048
  512SOL     OW 1579   1.663   2.679   1.825  0.1521  0.0819  0.1955
  512SOL    HW1 1580   1.615   2.757   1.822  1.0931 -3.2420  0.9870
  512SOL    HW2 1581   1.747   2.700   1.792  2.6843  1.5606 -1.3640
  513SOL     OW 1582   0.001   1.225   1.353 -0.1497  0.1304 -0.1946
  513SOL    HW1 1583   0.095   1.234   1.381 -1.7326 -2.4323  0.3771
  513SOL    HW2 1584   0.007   1.138   1.315  1.4658  0.8355 -0.9032
  514SOL     OW 1585   1.794   0.111   1.500  0.4095 -0.1004  0.2530
  514SOL    HW1 1586   1.730   0.064   1.555 -2.2973 -3.6091  1.1655
  514SOL    HW2 1587   1.780   0.079   1.409 -3.6858 -0.0080 -0.4779
  515SOL     OW 1588   2.753   0.193   1.599 -0.2877 -0.1344  0.1086
  515SOL    HW1 1589   2.713   0.259   1.651 -1.3253  1.5935  2.6288
  515SOL    HW2 1590   2.739   0.110   1.654 -3.3373  1.0206  1.2521
  516SOL     OW 1591   2.727   0.783   0.005  0.6741  0.0422  0.5894
  516SOL    HW1 1592   2.685   0.692  -0.003  0.4489 -1.5323 -1.3041
  516SOL    HW2 1593   2.757   0.796   0.097 -1.2343 -1.6435  0.2866
  517SOL     OW 1594   1.819   0.570   2.026  0.4689 -0.3606 -0.3582
  517SOL    HW1 1595   1.834   0.481   2.058  1.0850 -0.7416  0.7332
  517SOL    HW2 1596   1.727   0.557   2.002 -2.0795 -0.3318  0.2127
  518SOL     OW 1597   0.657   1.573   2.879  0.1947  0.6204 -0.7222
  518SOL    HW1 1598   0.562   1.567   2.860  2.5545  0.9990  1.3116
  518SOL    HW2 1599   0.675   1.480   2.872 -2.8812 -3.2381 -4.4455
  519SOL     OW 1600   1.950   1.360   1.812 -0.2203 -0.2419 -0.2502
  519SOL    HW1 1601   1.926   1.360   1.712  0.8488 -0.1734 -0.0009
  519SOL    HW2 1602   1.905   1.281   1.843  1.6911  0.3634 -1.0492
  520SOL     OW 1603   2.977   0.560   1.362 -0.4386 -0.2752 -0.5352
  520SOL    HW1 1604   3.060   0.565   1.421  1.4874  1.4634  0.6422
  520SOL    HW2 1605   2.978   0.465   1.350 -1.7749 -2.1350  0.7739
  521SOL     OW 1606   2.705   1.258   2.834  0.2758 -0.6496 -0.1776
  521SOL    HW1 1607   2.732   1.166   2.811  0.3903 -1.0812 -1.5545
  521SOL    HW2 1608   2.612   1.236   2.841 -1.6073 -2.4681  2.3372
  522SOL     OW 1609   2.412   1.808   0.311 -0.3655 -0.0872 -0.3917
  522SOL    HW1 1610   2.384   1.718   0.279  0.4356 -2.1886 -0.9976
  522SOL    HW2 1611   2.343   1.818   0.377  0.1590 -0.6003 -2.9998
  523SOL     OW 1612   2.086   0.619   0.761 -0.2608  0.2685 -0.0782
  523SOL    HW1 1613   2.114   0.578   0.679  1.6226 -0.0248  1.1053
  523SOL    HW2 1614   2.171   0.644   0.795  1.0318  3.3187 -0.1806
  524SOL     OW 1615   2.593   0.437   1.921 -0.0793 -0.9166 -0.4015
  524SOL    HW1 1616   2.641   0.394   2.000 -0.1351 -0.6359 -1.1851
  524SOL    HW2 1617   2.506   0.396   1.928 -1.6354 -0.6123  0.9007
  525SOL     OW 1618   0.204   1.310   0.834 -0.8086 -0.6220  0.0881
  525SOL    HW1 1619   0.288   1.327   0.795 -0.0173  0.1625  2.7195
  525SOL    HW2 1620   0.209   1.370   0.913 -2.0988 -0.7674  1.4217
  526SOL     OW 1621   1.149   0.852   2.550  0.5067 -0.1560  0.4846
  526SOL    HW1 1622   1.193   0.833   2.635 -0.5074  1.1000 -1.0887
  526SOL    HW2 1623   1.146   0.758   2.520  1.0911 -3.6908  0.8508
  527SOL     OW 1624   2.817   2.705   2.351 -0.1648 -0.5188 -0.1787
  527SOL    HW1 1625   2.832   2.639   2.424  1.2101 -2.1965  0.6064
  527SOL    HW2 1626   2.762   2.772   2.395  1.6987  0.1993 -0.7112
  528SOL     OW 1627   2.579   2.464   0.374 -0.0818  0.1485  0.2833
  528SOL    HW1 1628   2.562   2.552   0.409 -2.7616  0.1133 -3.6191
  528SOL    HW2 1629   2.600   2.486   0.276  1.1905 -1.7472  0.2508
  529SOL     OW 1630   2.016   0.246   0.439 -0.4430 -0.1570  0.3416
  529SOL    HW1 1631   2.000   0.219   0.528  0.6043 -3.8134  0.8122
  529SOL    HW2 1632   2.025   0.173   0.382  2.4680 -0.6778 -1.4101
  530SOL     OW 1633   2.183   0.223   2.740 -0.0345  0.2683  0.8910
  530SOL    HW1 1634   2.238   0.258   2.664  2.7349  3.3551  0.1790
  530SOL    HW2 1635   2.105   0.216   2.676  0.0529  0.4233 -3.8131
  531SOL     OW 1636   0.602   0.991   0.010  0.0859  0.0129  0.2837
  531SOL    HW1 1637   0.594   0.967  -0.083 -0.0549  0.1320  0.7934
  531SOL    HW2 1638   0.545   0.920   0.040  0.3211  4.2160  1.2968
  532SOL     OW 1639   1.643   2.778   1.407 -0.5407  0.3464  0.2267
  532SOL    HW1 1640   1.572   2.724   1.374  0.5848 -0.8007 -1.5222
  532SOL    HW2 1641   1.606   2.837   1.474 -0.5753 -1.7162  2.4001
  533SOL     OW 1642   0.335   1.140   1.107  0.3224 -0.6093  0.6573
  533SOL    HW1 1643   0.301   1.164   1.020  0.1053 -0.4806 -2.4021
  533SOL    HW2 1644   0.327   1.037   1.111 -2.1727 -3.7126 -0.9763
  534SOL     OW 1645   1.727   0.707   0.994 -0.1009  0.2259  0.3581
  534SOL    HW1 1646   1.704   0.624   0.958 -2.2193 -2.1593  1.0562
  534SOL    HW2 1647   1.825   0.704   0.982 -1.8519 -2.2001 -2.4389
  535SOL     OW 1648   0.146   0.448   1.782  0.3914 -0.4934 -0.5329
  535SOL    HW1 1649   0.164   0.383   1.850  2.2926  0.0221 -1.1697
  535SOL    HW2 1650   0.212   0.526   1.782 -4.2148  0.9770 -1.0149
  536SOL     OW 1651   2.120   1.813   0.387 -0.2863 -0.1080 -0.9642
  536SOL    HW1 1652   2.050   1.788   0.321 -1.2520 -0.9886 -0.8656
  536SOL    HW2 1653   2.135   1.905   0.360 -0.4565  0.7559 -0.9686
  537SOL     OW 1654   0.609   1.078   2.170 -0.5250 -0.1275 -0.3155
  537SOL    HW1 1655   0.530   1.127   2.157 -4.1777  1.9061  2.8545
  537SOL    HW2 1656   0.587   0.981   2.179 -0.4467 -0.9719  4.2841
  538SOL     OW 1657   0.492   0.007   1.852 -0.4412  0.4390  0.6609
  538SOL    HW1 1658   0.422   0.068   1.831 -0.8904 -1.5659 -1.3482
  538SOL    HW2 1659   0.449  -0.077   1.849  0.4517  2.2278 -0.3129
  539SOL     OW 1660   2.383   0.419   0.797 -0.2234  0.0887 -0.0433
  539SOL    HW1 1661   2.399   0.516   0.803 -4.2734  1.1961  1.8359
  539SOL    HW2 1662   2.325   0.421   0.721 -0.3707 -1.6993 -3.1289
  540SOL     OW 1663   0.538   0.549   2.041 -0.6861  0.5251 -0.0151
  540SOL    HW1 1664   0.489   0.513   2.114  1.6976  0.4781 -2.8723
  540SOL    HW2 1665   0.609   0.482   2.048  0.3011  1.0954  0.8207
  541SOL     OW 1666   1.139   2.407   2.156  0.3401  0.0463  0.5594
  541SOL    HW1 1667   1.121   2.500   2.127 -2.4954 -0.6333  1.0477
  541SOL    HW2 1668   1.233   2.397   2.124  0.2061 -1.9650 -0.0222
  542SOL     OW 1669   2.742   0.567   0.910  0.5426 -0.5892 -0.5966
  542SOL    HW1 1670   2.778   0.628   0.980  1.5692 -1.0324 -1.6424
  542SOL    HW2 1671   2.724   0.624   0.837 -1.8466 -0.6704 -0.8616
  543SOL     OW 1672   0.906   2.359   1.605 -0.0624  0.0519  0.0021
  543SOL    HW1 1673   0.952   2.292   1.657  0.3108  0.0370  0.8397
  543SOL    HW2 1674   0.841   2.301   1.552  0.5714 -1.8524 -0.2445
  544SOL     OW 1675   2.475   2.575   1.800  0.1950  0.8477  0.0968
  544SOL    HW1 1676   2.543   2.532   1.854 -1.6496 -0.9751 -0.4756
  544SOL    HW2 1677   2.419   2.498   1.774 -0.4717 -1.1855  1.3427
  545SOL     OW 1678   0.374   2.191   0.902 -0.2725  0.3168  0.4504
  545SOL    HW1 1679   0.429   2.259   0.872  1.9082  2.0494  0.5924
  545SOL    HW2 1680   0.312   2.228   0.962 -1.3294 -1.9388 -0.4119
  546SOL     OW 1681   0.604   2.367   0.674  0.2208  0.1865  0.1087
  546SOL    HW1 1682   0.532   2.323   0.630  0.0801  2.2327  1.6315
  546SOL    HW2 1683   0.675   2.299   0.674  1.5588 -2.3372  0.7472
  547SOL     OW 1684   1.866   2.665   2.141 -0.3120  0.1123  0.3915
  547SOL    HW1 1685   1.860   2.761   2.141 -0.3559  0.3403 -0.6588
  547SOL    HW2 1686   1.932   2.653   2.212  2.8733  2.6812  1.3806
  548SOL     OW 1687   0.956   2.208   0.108 -0.1212 -0.1020 -0.0268
  548SOL    HW1 1688   0.984   2.164   0.189 -1.3422  0.5863  0.0325
  548SOL    HW2 1689   1.040   2.251   0.089  0.5026  2.8940 -1.0930
  549SOL     OW 1690   0.328   2.405   1.211  0.4397  0.2020  0.3098
  549SOL    HW1 1691   0.236   2.387   1.186 -0.8908 -1.2309  0.3813
  549SOL    HW2 1692   0.340   2.497   1.239 -2.6408 -1.2264 -2.7470
  550SOL     OW 1693   2.875   0.360   2.882  0.2008  0.3742  0.5414
  550SOL    HW1 1694   2.910   0.400   2.798 -1.9040  0.9814  1.0208
  550SOL    HW2 1695   2.948   0.296   2.898  0.4046  1.0079 -2.7451
  551SOL     OW 1696   2.570   2.150   2.376 -0.5141  0.2725  0.4704
  551SOL    HW1 1697   2.611   2.167   2.469  1.6149  0.5875  0.2525
  551SOL    HW2 1698   2.619   2.221   2.320  0.6040  0.4026  0.5451
  552SOL     OW 1699   0.189   2.543   1.463 -0.1662 -0.4338  0.7235
  552SOL    HW1 1700   0.207   2.499   1.374  1.3564 -0.3036  0.9965
  552SOL    HW2 1701   0.184   2.627   1.431  1.9836 -0.9830 -3.6876
  553SOL     OW 1702   1.796   1.392   1.597  0.2718  0.3741 -0.0141
  553SOL    HW1 1703   1.747   1.310   1.585  2.0448  3.9226  0.5896
  553SOL    HW2 1704   1.769   1.443   1.519 -1.4829 -1.7219 -0.1556
  554SOL     OW 1705   0.338   0.621   1.872 -0.2411 -0.6771  0.0444
  554SOL    HW1 1706   0.411   0.604   1.940 -1.7497 -4.6557  0.2538
  554SOL    HW2 1707   0.286   0.675   1.935 -0.7773 -0.0852  2.4903
  555SOL     OW 1708   2.051   1.225   1.004 -0.3954 -0.0730  0.3417
  555SOL    HW1 1709   2.056   1.256   1.094 -0.4565 -0.1978  0.2960
  555SOL    HW2 1710   1.996   1.286   0.953 -1.5237 -0.5807 -0.1472
  556SOL     OW 1711   1.795   2.022   1.131 -0.1938  0.4573  0.8022
  556SOL    HW1 1712   1.823   1.960   1.066 -1.8695  0.9154  3.0526
  556SOL    HW2 1713   1.874   2.012   1.192  3.7371 -3.0334  1.2919
  557SOL     OW 1714   2.066   0.853   1.758  0.1244 -0.1419  0.3011
  557SOL    HW1 1715   2.040   0.926   1.705 -3.4268 -0.9371 -0.3454
  557SOL    HW2 1716   1.988   0.800   1.757  0.3310  2.2575  1.4698
  558SOL     OW 1717   0.363   1.852   0.336  0.3692 -0.2393  0.3474
  558SOL    HW1 1718   0.312   1.774   0.341  2.2305  4.8005 -0.5591
  558SOL    HW2 1719   0.310   1.913   0.394  1.0917 -0.1100 -0.2694
  559SOL     OW 1720   0.777   2.133   1.446 -0.4878  0.1199 -0.0090
  559SOL    HW1 1721   0.762   2.148   1.350 -3.0329  0.3594  1.6018
  559SOL    HW2 1722   0.836   2.057   1.424 -0.2803 -2.7976 -0.7557
  560SOL     OW 1723   0.153   2.477   2.299  0.3264  0.3205  0.7735
  560SOL    HW1 1724   0.212   2.400   2.308  1.7993 -3.1564 -1.1196
  560SOL    HW2 1725   0.207   2.542   2.348 -1.3293 -2.1454  2.1394
  561SOL     OW 1726   2.923   0.287   1.402 -0.6077  0.7848  0.1948
  561SOL    HW1 1727   2.839   0.261   1.441  0.2840  0.9293 -0.3657
  561SOL    HW2 1728   2.983   0.269   1.473 -3.0794  2.1172 -0.5969
  562SOL     OW 1729   0.738   1.319   0.721 -0.2683 -0.7526 -0.0284
  562SOL    HW1 1730   0.833   1.302   0.744 -2.0201 -1.6393 -3.0166
  562SOL    HW2 1731   0.737   1.417   0.723  0.1204  1.6617 -1.2547
  563SOL     OW 1732   1.408   1.978   0.844  0.1326  0.0236 -0.9311
  563SOL    HW1 1733   1.457   2.035   0.781  4.0574  1.6822 -0.3880
  563SOL    HW2 1734   1.461   1.981   0.927  2.8093  3.1952  0.6677
  564SOL     OW 1735   1.468   1.486   1.804  0.8029  0.6337  0.4168
  564SOL    HW1 1736   1.539   1.529   1.760 -4.0903 -1.9655 -3.1222
  564SOL    HW2 1737   1.519   1.448   1.878  2.9453 -0.3984  1.9988
  565SOL     OW 1738   2.761   0.823   1.784 -0.2957  0.0056 -0.0189
  565SOL    HW1 1739   2.750   0.903   1.734 -2.2805  0.6787 -2.3307
  565SOL    HW2 1740   2.774   0.766   1.710 -0.9183 -1.5588  1.0584
  566SOL     OW 1741   0.267   1.250   1.448 -0.1916 -0.0612 -0.2777
  566SOL    HW1 1742   0.330   1.281   1.373  0.9420  2.5104  2.4490
  566SOL    HW2 1743   0.327   1.183   1.475 -0.1205 -2.0409  0.4780
  567SOL     OW 1744   2.820   2.590   0.752  0.0641 -0.9636 -0.6315
  567SOL    HW1 1745   2.793   2.499   0.753  0.0721 -0.8542 -2.9787
  567SOL    HW2 1746   2.851   2.598   0.661  1.4943  2.2032  1.7501
  568SOL     OW 1747   2.370   2.369   2.818 -0.4683  0.6877  0.0725
  568SOL    HW1 1748   2.294   2.396   2.763 -1.3894 -0.4293  1.4780
  568SOL    HW2 1749   2.429   2.432   2.779  1.0229  2.5627 -1.2695
  569SOL     OW 1750   1.703   0.625   1.477  0.0788  0.1597  0.6577
  569SOL    HW1 1751   1.619   0.619   1.426  1.0448  0.8649  0.7294
  569SOL    HW2 1752   1.764   0.604   1.403  1.1196 -0.6868  0.6647
  570SOL     OW 1753   1.383   2.595   1.468 -0.0589 -0.1562 -1.1266
  570SOL    HW1 1754   1.336   2.560   1.539 -2.2208  1.0819 -1.3870
  570SOL    HW2 1755   1.364   2.544   1.392  0.7666 -0.7884  1.0060
  571SOL     OW 1756   2.709   0.473   0.236 -0.3568  0.1198 -0.2369
  571SOL    HW1 1757   2.703   0.566   0.275  1.5826 -0.1434  0.0795
  571SOL    HW2 1758   2.645   0.487   0.166 -0.4516  0.3973 -0.4340
  572SOL     OW 1759   1.719   0.866   2.940 -0.0020 -0.6269 -0.8257
  572SOL    HW1 1760   1.627   0.858   2.946 -0.6141  0.1861  0.6656
  572SOL    HW2 1761   1.730   0.837   2.852 -3.1375 -0.2807  0.6976
  573SOL     OW 1762   2.786   2.907   1.470  0.8497 -0.3467  0.6268
  573SOL    HW1 1763   2.715   2.978   1.488 -2.2736  0.5971 -0.0804
  573SOL    HW2 1764   2.772   2.850   1.548 -0.2594  1.4586  2.6087
  574SOL     OW 1765   2.262   1.028   0.917 -0.3529 -0.8976 -0.0179
  574SOL    HW1 1766   2.295   0.991   1.001 -1.7096  1.0864 -1.2860
  574SOL    HW2 1767   2.231   1.112   0.938 -0.6186 -0.7908 -2.9068
  575SOL     OW 1768   2.130   1.051   2.339 -0.7658  0.3214 -0.6299
  575SOL    HW1 1769   2.127   1.074   2.242  2.9074 -0.9745  5.4690
  575SOL    HW2 1770   2.212   0.995   2.329 -0.5932  3.3898  0.3689
  576SOL     OW 1771   1.007   0.205   0.434 -0.0424 -0.5991  0.2416
  576SOL    HW1 1772   0.970   0.129   0.379  0.8335  1.4548  1.1392
  576SOL    HW2 1773   0.990   0.281   0.369 -2.2029 -0.6784 -0.2997
  577SOL     OW 1774   0.445   0.166   2.488  0.6421 -0.0914 -0.4145
  577SOL    HW1 1775   0.491   0.085   2.455  2.1542 -0.7432 -0.2809
  577SOL    HW2 1776   0.448   0.224   2.410  0.3038 -1.6993 -1.3711
  578SOL     OW 1777   2.719   1.429   0.122  0.3192  0.2032  0.6628
  578SOL    HW1 1778   2.727   1.376   0.193  2.5809 -3.5078 -1.2507
  578SOL    HW2 1779   2.793   1.409   0.067  2.7678 -2.5064  2.0833
  579SOL     OW 1780   1.120   1.638   0.303 -0.4442  0.0693  0.2633
  579SOL    HW1 1781   1.196   1.584   0.274 -1.3128 -0.1597 -0.2676
  579SOL    HW2 1782   1.053   1.625   0.231 -0.1200  0.6349 -1.4841
  580SOL     OW 1783   1.404   1.156   1.465  0.4850 -0.3235  0.5776
  580SOL    HW1 1784   1.411   1.204   1.549  2.2557 -0.3029  0.7027
  580SOL    HW2 1785   1.432   1.217   1.400  1.0828  0.5194 -1.3531
  581SOL     OW 1786   0.380   1.517   2.867 -0.0458 -0.0286 -0.8714
  581SOL    HW1 1787   0.360   1.595   2.925 -0.0790  0.8247 -1.3777
  581SOL    HW2 1788   0.366   1.427   2.914  2.8001  0.1770  0.6300
  582SOL     OW 1789   2.055   2.794   1.318 -0.0679  0.4624  0.5297
  582SOL    HW1 1790   2.124   2.732   1.368 -0.7429  0.2137  1.2550
  582SOL    HW2 1791   2.111   2.871   1.286 -2.3634  1.0241  0.0031
  583SOL     OW 1792   0.998   0.643   0.175  0.4458  0.8821  0.0214
  583SOL    HW1 1793   0.913   0.653   0.131  0.7461  1.5557  0.8271
  583SOL    HW2 1794   1.049   0.638   0.089  2.1686 -1.0469  3.8415
  584SOL     OW 1795   2.530   0.575   0.007 -0.3916 -0.2677  0.0896
  584SOL    HW1 1796   2.479   0.553  -0.075  0.1234  0.2015 -0.8308
  584SOL    HW2 1797   2.475   0.538   0.077 -2.0234 -1.5661  0.2640
  585SOL     OW 1798   1.434   2.563   0.142 -0.6607  0.7795  0.6023
  585SOL    HW1 1799   1.517   2.615   0.157 -2.1352 -0.2124  0.5431
  585SOL    HW2 1800   1.419   2.524   0.232 -0.4839 -0.6441  1.0819
  586SOL     OW 1801   2.339   2.848   1.740 -0.3728 -0.2504  0.2069
  586SOL    HW1 1802   2.371   2.891   1.650 -0.0823 -1.5240  4.4915
  586SOL    HW2 1803   2.396   2.773   1.740  1.1146  1.5950 -3.1741
  587SOL     OW 1804   0.974   2.127   1.185  0.3417  0.9582  0.0639
  587SOL    HW1 1805   1.037   2.093   1.253 -3.0132 -2.2662  1.6641
  587SOL    HW2 1806   1.039   2.166   1.125 -3.1366 -3.8669 -0.5268
  588SOL     OW 1807   2.614   2.293   1.702  0.3430 -0.1318 -0.9330
  588SOL    HW1 1808   2.630   2.197   1.710 -2.5381 -1.4323 -0.3207
  588SOL    HW2 1809   2.528   2.298   1.743  1.6687 -0.0826 -1.0250
  589SOL     OW 1810   2.421   1.443   1.986  0.2354  0.5711 -0.4948
  589SOL    HW1 1811   2.334   1.453   2.028 -0.7965  0.3749  2.0286
  589SOL    HW2 1812   2.478   1.477   2.063  0.8004  1.2074  1.2240
  590SOL     OW 1813   1.090   2.536   0.638  0.1618  0.0715  0.0206
  590SOL    HW1 1814   1.050   2.444   0.652 -2.4482 -4.1975  3.9312
  590SOL    HW2 1815   1.007   2.593   0.660  0.0790 -1.5855  1.3804
  591SOL     OW 1816   2.045   1.279   0.481 -0.8130  0.0071 -0.5743
  591SOL    HW1 1817   1.987   1.232   0.545 -2.7951  0.4135  0.6309
  591SOL    HW2 1818   2.135   1.260   0.517 -0.8083 -1.2547  0.4674
  592SOL     OW 1819   0.328   0.291   0.807  0.3115 -0.4534  0.4431
  592SOL    HW1 1820   0.316   0.363   0.870 -1.3294 -1.3323  1.3664
  592SOL    HW2 1821   0.401   0.322   0.756 -1.1777  2.1286  0.4198
  593SOL     OW 1822   1.234   1.920   0.200  0.1286  0.5364  0.1029
  593SOL    HW1 1823   1.200   2.008   0.236  4.7846  1.1484 -3.7390
  593SOL    HW2 1824   1.181   1.873   0.263 -3.4524  1.9607  3.1069
  594SOL     OW 1825   2.473   0.996   0.568 -0.0342 -0.0616  0.2231
  594SOL    HW1 1826   2.546   1.051   0.603 -1.9111  2.7429 -2.5370
  594SOL    HW2 1827   2.494   0.914   0.607  0.5193 -1.1957  0.3246
  595SOL     OW 1828   1.878   1.879   0.897 -0.0811  0.1655 -0.0810
  595SOL    HW1 1829   1.963   1.838   0.910 -0.5832  0.9888  1.3825
  595SOL    HW2 1830   1.867   1.896   0.799 -3.5543  0.5388 -0.4081
  596SOL     OW 1831   0.814   2.124   0.840 -0.4815  0.3428 -0.1733
  596SOL    HW1 1832   0.734   2.066   0.859  0.0254 -4.9935  2.4299
  596SOL    HW2 1833   0.780   2.203   0.895 -0.2526 -0.1166  3.3297
  597SOL     OW 1834   1.510   2.083   1.817  0.2974 -0.8518  0.0901
  597SOL    HW1 1835   1.601   2.116   1.789  1.0679 -2.4400  0.1031
  597SOL    HW2 1836   1.541   1.992   1.842  1.7221 -0.2227  0.0930
  598SOL     OW 1837   2.056   2.598   2.356 -0.0493 -0.4988 -0.1249
  598SOL    HW1 1838   2.095   2.516   2.323  1.9343 -1.3771  2.2086
  598SOL    HW2 1839   2.117   2.631   2.425  1.8691 -0.1191  2.1935
  599SOL     OW 1840   0.989   0.293   0.842 -0.2511 -0.0807  0.7690
  599SOL    HW1 1841   1.012   0.323   0.757  2.0684  0.8918 -0.7424
  599SOL    HW2 1842   1.077   0.259   0.867  0.4684 -0.1793  3.4727
  600SOL     OW 1843   2.753   0.348   0.635  0.5203 -0.4161  0.3417
  600SOL    HW1 1844   2.740   0.303   0.546  1.5959 -1.1284 -1.1221
  600SOL    HW2 1845   2.794   0.277   0.687 -2.0041 -1.2976 -2.8853
  601SOL     OW 1846   1.039   2.788   2.316 -0.3172 -0.2191 -0.1043
  601SOL    HW1 1847   1.119   2.838   2.351 -0.8947 -1.0053  1.9321
  601SOL    HW2 1848   1.043   2.695   2.362  0.5649  0.2403  1.4472
  602SOL     OW 1849   0.181   0.935   1.366 -0.1465 -0.2764  0.4928
  602SOL    HW1 1850   0.094   0.951   1.325 -2.4260  3.4988  0.5791
  602SOL    HW2 1851   0.222   0.940   1.277  3.2509 -1.2513  0.5114
  603SOL     OW 1852   0.149   0.120   0.602 -0.0123 -0.8573  0.4988
  603SOL    HW1 1853   0.201   0.187   0.647  1.5537 -0.8356 -1.8438
  603SOL    HW2 1854   0.224   0.070   0.569 -0.6501  0.3701  2.7217
  604SOL     OW 1855   2.973   2.820   1.939  0.1840 -0.1068 -0.2188
  604SOL    HW1 1856   2.997   2.726   1.927  0.4726  1.6264  2.0807
  604SOL    HW2 1857   3.032   2.848   2.010 -1.0734 -2.8450  2.6878
  605SOL     OW 1858   0.947   0.252   1.642  0.8938 -0.0620 -0.1917
  605SOL    HW1 1859   0.907   0.205   1.573 -1.7736 -0.6124  0.1645
  605SOL    HW2 1860   0.931   0.346   1.611  0.4205  1.2586 -1.9666
  606SOL     OW 1861   1.323   0.719   1.588 -0.8315 -0.2300  0.3333
  606SOL    HW1 1862   1.240   0.752   1.618 -0.3431 -3.8418  2.6838
  606SOL    HW2 1863   1.311   0.632   1.625  0.1261  2.1246  0.0776
  607SOL     OW 1864   2.588   2.057   0.351  0.2035 -0.6353 -0.9367
  607SOL    HW1 1865   2.625   1.995   0.412 -0.4199  4.0422  1.2362
  607SOL    HW2 1866   2.543   1.989   0.298  1.7973  0.1750  2.1717
  608SOL     OW 1867   0.479   2.243   1.477  0.0379  0.9605 -0.0046
  608SOL    HW1 1868   0.472   2.258   1.380  2.4604  0.0262  0.5539
  608SOL    HW2 1869   0.578   2.227   1.487  0.9320  0.6410  5.4333
  609SOL     OW 1870   2.723   2.991   1.763 -0.3177 -0.6834 -0.1521
  609SOL    HW1 1871   2.705   2.976   1.860  2.2219  1.5085  3.6148
  609SOL    HW2 1872   2.692   2.914   1.710  0.7801  1.4657 -1.8841
  610SOL     OW 1873   0.637   0.413   1.780  0.2429 -0.2964 -0.2638
  610SOL    HW1 1874   0.617   0.505   1.775  2.7118 -1.2334  1.8233
  610SOL    HW2 1875   0.557   0.370   1.733 -0.0353  2.3057  0.2935
  611SOL     OW 1876   0.308   0.690   0.724  0.3781 -0.8833 -0.5344
  611SOL    HW1 1877   0.356   0.690   0.810 -1.6002  0.3639 -2.4411
  611SOL    HW2 1878   0.304   0.597   0.704  3.2888  2.0493 -2.0011
  612SOL     OW 1879   1.774   1.115   2.982  0.3770  0.6501 -0.5326
  612SOL    HW1 1880   1.766   1.014   2.976  1.7701 -1.1745  1.1762
  612SOL    HW2 1881   1.701   1.149   2.922 -0.2561 -0.9698  2.6036
  613SOL     OW 1882   2.374   0.049   2.593 -0.5683 -0.4492 -0.1381
  613SOL    HW1 1883   2.418   0.134   2.564  3.1946  0.2579 -1.2379
  613SOL    HW2 1884   2.356   0.071   2.684  0.6993 -0.0292 -0.3512
  614SOL     OW 1885   1.097   1.850   0.517 -0.2297  0.0535 -0.3069
  614SOL    HW1 1886   1.091   1.767   0.465 -0.7402 -0.8459  2.4079
  614SOL    HW2 1887   1.124   1.799   0.601  0.0879  0.5959 -0.1525
  615SOL     OW 1888   1.100   0.175   2.943  0.0318 -0.1370 -0.6557
  615SOL    HW1 1889   1.147   0.173   3.026  0.6687 -1.0120 -1.0135
  615SOL    HW2 1890   1.152   0.105   2.905 -0.8638 -0.2939  1.4988
  616SOL     OW 1891   2.260   0.740   1.203  0.3220  0.6030 -0.4546
  616SOL    HW1 1892   2.233   0.651   1.169 -0.3593 -2.2197  0.0567
  616SOL    HW2 1893   2.227   0.726   1.293  0.2449 -1.5961  0.2840
  617SOL     OW 1894   0.178   2.870   2.914 -0.2283 -0.2141  0.4552
  617SOL    HW1 1895   0.269   2.839   2.946  0.2908  2.4020  0.9848
  617SOL    HW2 1896   0.138   2.862   3.002 -0.4026 -1.8210  1.9766
  618SOL     OW 1897   1.693   1.479   2.153 -0.0668 -0.2633 -0.0700
  618SOL    HW1 1898   1.694   1.530   2.069  0.5607 -0.7048 -0.6357
  618SOL    HW2 1899   1.788   1.472   2.169 -2.1093  1.2476  0.0485
  619SOL     OW 1900   2.447   1.413   0.085 -0.1168 -0.3577  0.5149
  619SOL    HW1 1901   2.441   1.316   0.069  0.6497  0.3127 -2.5840
  619SOL    HW2 1902   2.548   1.441   0.091 -0.3639  1.5233  2.0373
  620SOL     OW 1903   1.207   0.889   0.223  0.5309  0.0644  0.0110
  620SOL    HW1 1904   1.167   0.802   0.214  3.1713 -1.4022  2.3617
  620SOL    HW2 1905   1.124   0.937   0.244 -0.6267 -0.4804  1.5334
  621SOL     OW 1906   0.210   1.982   1.670 -0.3725  0.0150 -0.1031
  621SOL    HW1 1907   0.265   2.067   1.660  2.3383  0.5642 -4.3832
  621SOL    HW2 1908   0.129   2.033   1.701 -0.2716  1.7190  0.4323
  622SOL     OW 1909   3.000   2.117   1.708  0.0275 -0.2866 -0.0089
  622SOL    HW1 1910   2.913   2.091   1.744 -0.7027  1.1658 -0.3599
  622SOL    HW2 1911   2.976   2.145   1.614 -1.5948  5.2160 -2.2322
  623SOL     OW 1912   2.950   1.200   0.733  0.2463  0.3832  0.1987
  623SOL    HW1 1913   2.990   1.184   0.643  0.2381 -3.0587 -0.3540
  623SOL    HW2 1914   3.035   1.196   0.784 -2.1897  0.3548  1.1034
  624SOL     OW 1915   0.456   0.679   1.631 -0.4381  0.2299  0.4626
  624SOL    HW1 1916   0.408   0.756   1.600  4.0200  2.0637  1.5227
  624SOL    HW2 1917   0.423   0.659   1.715 -0.8071  0.8053 -3.4407
  625SOL     OW 1918   1.254   0.141   0.413  0.3629  0.7378  0.6177
  625SOL    HW1 1919   1.171   0.196   0.449 -2.6859  1.2408  1.2429
  625SOL    HW2 1920   1.250   0.078   0.490 -0.4744  2.2765  0.9153
  626SOL     OW 1921   2.742   2.693   1.271 -0.5629 -0.4224 -0.0347
  626SOL    HW1 1922   2.646   2.711   1.253 -0.2014  2.1420 -3.9160
  626SOL    HW2 1923   2.750   2.730   1.363  4.1060  1.2303 -0.7254
  627SOL     OW 1924   0.033   2.128   1.097  0.2817  0.4827 -0.0518
  627SOL    HW1 1925  -0.006   2.088   1.014 -2.5184 -2.3602 -2.7287
  627SOL    HW2 1926   0.071   2.057   1.152 -0.4191 -1.7497 -0.6804
  628SOL     OW 1927   2.268   2.033   0.794 -0.5935 -0.2858 -0.1814
  628SOL    HW1 1928   2.273   1.986   0.883 -0.2806 -0.5902 -4.0586
  628SOL    HW2 1929   2.209   2.108   0.815 -0.0690  2.8166  0.1368
  629SOL     OW 1930   0.733   0.201   0.886 -0.0038 -0.4159 -0.3540
  629SOL    HW1 1931   0.814   0.263   0.877  2.9583  0.5076  4.2496
  629SOL    HW2 1932   0.663   0.258   0.925 -1.3222  0.1200 -1.1594
  630SOL     OW 1933   1.481   2.032   0.511  0.1003 -0.0603 -0.2601
  630SOL    HW1 1934   1.572   2.053   0.522 -1.8418  0.9611  2.3424
  630SOL    HW2 1935   1.476   1.936   0.527 -0.0427 -1.2664  1.5796
  631SOL     OW 1936   2.576   2.716   0.902 -0.4519 -0.3144  0.5928
  631SOL    HW1 1937   2.557   2.630   0.844 -1.1253  0.2631 -3.9943
  631SOL    HW2 1938   2.670   2.699   0.880  1.6563 -0.1758  3.1819
  632SOL     OW 1939   2.219   2.830   1.989 -0.1824  0.4798  1.0223
  632SOL    HW1 1940   2.280   2.836   1.912  1.6026 -2.4905  0.7346
  632SOL    HW2 1941   2.275   2.800   2.060 -3.4467 -1.1539 -1.1095
  633SOL     OW 1942   2.130   1.229   1.524 -0.0200  0.4823 -0.2670
  633SOL    HW1 1943   2.155   1.181   1.600 -1.4593 -1.4002  3.9118
  633SOL    HW2 1944   2.170   1.310   1.557 -0.3877 -0.2483  0.6746
  634SOL     OW 1945   0.027   2.560   1.881 -0.2433 -0.8017 -0.2428
  634SOL    HW1 1946  -0.024   2.480   1.864 -1.5062 -2.4447 -1.2644
  634SOL    HW2 1947   0.116   2.544   1.833  2.5408 -0.7772  0.4227
  635SOL     OW 1948   1.930   1.790   2.318  0.5211  0.1228 -0.6638
  635SOL    HW1 1949   2.011   1.748   2.331 -1.5714 -0.1622  0.9113
  635SOL    HW2 1950   1.874   1.723   2.348 -1.8059  1.1639 -2.2860
  636SOL     OW 1951   1.219   2.277   0.111 -0.1282  0.0939 -0.1745
  636SOL    HW1 1952   1.265   2.294   0.197  0.3269 -1.6967  0.7974
  636SOL    HW2 1953   1.282   2.227   0.058 -1.0673  1.0486 -0.1775
  637SOL     OW 1954   1.798   2.631   0.563 -0.2946 -0.0682 -0.3641
  637SOL    HW1 1955   1.820   2.728   0.588  1.3256  1.1427 -0.3472
  637SOL    HW2 1956   1.809   2.601   0.653 -0.5174  0.9071  1.2046
  638SOL     OW 1957   0.741   1.756   2.163  0.1503  0.0188  0.1844
  638SOL    HW1 1958   0.746   1.787   2.073  0.6454 -2.9011  1.3840
  638SOL    HW2 1959   0.816   1.688   2.167  0.1599 -5.2378 -0.2531
  639SOL     OW 1960   0.404   2.211   0.562  0.1005 -0.7599  0.3863
  639SOL    HW1 1961   0.318   2.258   0.585  1.5078  2.0885 -0.2882
  639SOL    HW2 1962   0.372   2.126   0.546  1.8062 -1.1808 -1.9974
  640SOL     OW 1963   1.016   2.338   2.365  0.5667  0.4818  0.7517
  640SOL    HW1 1964   1.038   2.356   2.270 -3.5154  0.6969  2.1221
  640SOL    HW2 1965   1.087   2.279   2.396  1.1276 -0.8617 -0.6788
  641SOL     OW 1966   0.628   1.771   1.028  0.8058  0.0880 -0.0491
  641SOL    HW1 1967   0.569   1.843   1.007  0.4604  0.0075 -0.9337
  641SOL    HW2 1968   0.717   1.796   1.007 -2.3814  1.5842 -0.1813
  642SOL     OW 1969   2.946   1.570   2.547 -0.0395  0.5887 -0.7362
  642SOL    HW1 1970   2.903   1.489   2.573 -1.3924  0.8648  1.1051
  642SOL    HW2 1971   2.871   1.621   2.499  1.6397 -1.3445  0.6403
  643SOL     OW 1972   2.904   1.587   0.912 -0.0269  0.2953  0.0982
  643SOL    HW1 1973   2.931   1.513   0.971 -0.8209 -0.0733  1.4621
  643SOL    HW2 1974   2.846   1.640   0.976  1.4919  0.7883 -1.4461
  644SOL     OW 1975   2.234   2.503   0.592 -0.5830  0.1056  0.4488
  644SOL    HW1 1976   2.158   2.550   0.642  1.1238  4.1837 -0.6468
  644SOL    HW2 1977   2.285   2.445   0.651  0.4917 -2.2805  0.4945
  645SOL     OW 1978   0.617   1.269   0.157 -0.0682  0.5851 -0.0046
  645SOL    HW1 1979   0.633   1.292   0.062 -0.3295 -1.2337 -3.1157
  645SOL    HW2 1980   0.636   1.173   0.151 -3.2159  3.6457 -0.8976
  646SOL     OW 1981   0.836   0.093   2.931  0.3481  0.2609 -0.0496
  646SOL    HW1 1982   0.914   0.149   2.916 -0.3009 -3.9796  1.5349
  646SOL    HW2 1983   0.866   0.049   3.013 -3.9619  0.9093  3.3440
  647SOL     OW 1984   2.609   0.406   1.665  0.0853  0.5684 -0.0434
  647SOL    HW1 1985   2.528   0.350   1.678  0.7115  0.6479 -0.8070
  647SOL    HW2 1986   2.614   0.437   1.755 -0.7370 -0.5475 -1.1493
  648SOL     OW 1987   0.114   0.118   0.930  0.2803  0.5282  0.3708
  648SOL    HW1 1988   0.134   0.103   1.025 -0.2167  4.7810 -1.9507
  648SOL    HW2 1989   0.166   0.193   0.912 -2.1296 -0.9135 -4.4182
  649SOL     OW 1990   0.035   1.804   1.566  0.7983 -0.3269 -0.8030
  649SOL    HW1 1991   0.117   1.860   1.586  0.4382  2.5253  0.9776
  649SOL    HW2 1992  -0.031   1.869   1.530 -1.8240 -1.5494  2.2656
  650SOL     OW 1993   0.242   1.382   0.485  0.1028  0.5502  0.0478
  650SOL    HW1 1994   0.330   1.344   0.444 -0.7657  0.1033  1.9135
  650SOL    HW2 1995   0.271   1.412   0.569  1.2345  1.2331  0.5898
  651SOL     OW 1996   1.453   1.055   0.071 -0.2585 -0.0510 -0.7752
  651SOL    HW1 1997   1.370   1.110   0.056 -2.3664  1.3200  1.5345
  651SOL    HW2 1998   1.480   1.085   0.157  0.3982  2.9482 -1.4585
  652SOL     OW 1999   1.032   2.183   2.020  0.2596 -0.2555 -0.0064
  652SOL    HW1 2000   1.097   2.233   2.082  0.8972  2.7971  1.8178
  652SOL    HW2 2001   0.940   2.202   2.054  1.4846  0.2521 -1.8349
  653SOL     OW 2002   0.429   1.584   1.174 -0.3687 -0.4981  0.1090
  653SOL    HW1 2003   0.462   1.511   1.227 -2.1869 -0.2955  3.1113
  653SOL    HW2 2004   0.513   1.631   1.164 -1.5340 -1.9659  1.3498
  654SOL     OW 2005   1.468   1.733   2.390  0.3270  0.6928 -0.5519
  654SOL    HW1 2006   1.518   1.779   2.321  0.9517 -0.1329 -3.2075
  654SOL    HW2 2007   1.538   1.696   2.445  1.1327 -1.1335  1.0353
  655SOL     OW 2008   2.564   1.868   0.881 -0.1183 -0.0367 -0.1118
  655SOL    HW1 2009   2.561   1.788   0.824  0.9148  2.3176  0.5692
  655SOL    HW2 2010   2.490   1.918   0.849 -0.1396  0.5151 -4.6280
  656SOL     OW 2011   0.898   0.835   2.457 -0.7205  0.4237 -0.5520
  656SOL    HW1 2012   0.864   0.855   2.544 -3.2015  3.4611  0.6946
  656SOL    HW2 2013   0.993   0.831   2.472 -0.8115 -0.0313 -0.0852
  657SOL     OW 2014   1.784   0.421   0.735  0.2636 -0.5760 -0.1925
  657SOL    HW1 2015   1.704   0.470   0.701 -1.0094  2.2194 -1.1335
  657SOL    HW2 2016   1.827   0.397   0.644  1.7340 -2.9809 -2.6879
  658SOL     OW 2017   0.956   1.584   2.131  0.1920  0.1158 -0.0409
  658SOL    HW1 2018   0.934   1.489   2.126  3.9193 -0.5878 -3.0167
  658SOL    HW2 2019   1.053   1.579   2.141  0.6188  3.1448  0.8910
  659SOL     OW 2020   2.815   0.181   0.122  0.3286  0.4183 -0.5514
  659SOL    HW1 2021   2.764   0.226   0.058  0.0454 -2.5228  0.1650
  659SOL    HW2 2022   2.902   0.196   0.091  0.2684  1.1757 -0.3331
  660SOL     OW 2023   2.200   0.455   0.577 -0.4631  0.6033  0.6083
  660SOL    HW1 2024   2.269   0.503   0.523  1.2341  2.0755  2.5821
  660SOL    HW2 2025   2.154   0.389   0.513 -0.8412  1.5393 -0.2439
  661SOL     OW 2026   0.116   0.819   0.872 -0.8014 -0.2673 -0.5629
  661SOL    HW1 2027   0.030   0.812   0.829 -2.5651 -3.6221  1.2527
  661SOL    HW2 2028   0.162   0.751   0.818 -0.7583 -0.8106  1.6234
  662SOL     OW 2029   0.114   0.966   2.918  0.1632  0.1068 -0.4500
  662SOL    HW1 2030   0.089   1.067   2.912 -3.4916  1.5658 -3.2347
  662SOL    HW2 2031   0.113   0.955   3.010 -0.1160 -0.9191  2.0799
  663SOL     OW 2032   2.896   2.631   0.499  0.5530  0.6305 -0.0723
  663SOL    HW1 2033   2.913   2.542   0.464  1.6508  0.1072  1.1737
  663SOL    HW2 2034   2.989   2.672   0.482 -0.6049  3.1133  1.4596
  664SOL     OW 2035   2.111   2.886   0.941  0.4721  0.3955 -0.3330
  664SOL    HW1 2036   2.199   2.923   0.918  1.5985  0.9859  0.3005
  664SOL    HW2 2037   2.050   2.945   0.892 -2.7001 -2.2324 -1.3276
  665SOL     OW 2038   2.997   0.799   0.410 -0.4976  0.5610 -0.0505
  665SOL    HW1 2039   3.048   0.831   0.336 -1.5302 -0.3577  3.1221
  665SOL    HW2 2040   2.992   0.698   0.392  0.1795 -1.2071  0.3571
  666SOL     OW 2041   1.902   0.891   1.227 -0.4005  0.4673 -0.7498
  666SOL    HW1 2042   1.941   0.903   1.138 -0.5084 -1.5547  1.7823
  666SOL    HW2 2043   1.853   0.811   1.227  0.7961  1.0174 -1.5944
  667SOL     OW 2044   0.791   1.538   0.455 -0.4942 -0.7160  0.3463
  667SOL    HW1 2045   0.715   1.494   0.422  0.9728 -0.2338 -0.5687
  667SOL    HW2 2046   0.794   1.626   0.408 -1.3719  0.4286 -1.2391
  668SOL     OW 2047   1.788   0.863   0.356 -0.2422 -0.0737 -0.0107
  668SOL    HW1 2048   1.859   0.809   0.399 -0.1569 -1.6089  1.8772
  668SOL    HW2 2049   1.846   0.930   0.319  0.0956  0.7793 -0.8249
  669SOL     OW 2050   0.740   2.624   2.837  0.2434  0.4222  0.1310
  669SOL    HW1 2051   0.751   2.606   2.936 -1.4395  1.4945  2.9812
  669SOL    HW2 2052   0.829   2.587   2.814 -3.1340  2.9891 -0.7061
  670SOL     OW 2053   1.756   0.889   2.352  0.2156  0.1168  0.1633
  670SOL    HW1 2054   1.752   0.966   2.414 -1.7327  2.2025 -1.2408
  670SOL    HW2 2055   1.694   0.839   2.409 -0.8766 -1.2030 -0.1915
  671SOL     OW 2056   1.139   1.178   2.531  0.4742 -0.4713  0.1282
  671SOL    HW1 2057   1.138   1.081   2.542  4.3720  1.0191 -0.7408
  671SOL    HW2 2058   1.154   1.213   2.621  0.8035  1.8454 -0.6135
  672SOL     OW 2059   2.489   0.262   2.406  0.2995  0.3594  0.6487
  672SOL    HW1 2060   2.584   0.291   2.381 -1.7160 -1.4514 -2.5239
  672SOL    HW2 2061   2.455   0.243   2.316  2.5170  2.1460  0.0520
  673SOL     OW 2062   2.877   0.271   1.889  0.0576  0.2757  0.6086
  673SOL    HW1 2063   2.852   0.363   1.855 -3.5905  0.8329 -0.9447
  673SOL    HW2 2064   2.827   0.263   1.973 -3.6837 -2.2750  0.3922
  674SOL     OW 2065   0.262   2.195   0.000 -0.1868 -0.3015 -0.0617
  674SOL    HW1 2066   0.193   2.236   0.050  3.1086  2.4792 -1.1882
  674SOL    HW2 2067   0.265   2.269  -0.071  0.2483 -1.4089 -1.5485
  675SOL     OW 2068   0.445   1.712   1.971  0.3369 -0.2048 -0.0082
  675SOL    HW1 2069   0.370   1.668   2.012  1.3641  0.8586  2.3285
  675SOL    HW2 2070   0.419   1.808   1.969  3.4375  0.2644 -1.1932
  676SOL     OW 2071   1.322   1.579   0.939 -1.3606 -0.1539  0.6167
  676SOL    HW1 2072   1.337   1.552   1.033 -0.5356 -2.4547 -2.1863
  676SOL    HW2 2073   1.297   1.496   0.901  4.1188  2.3911 -1.0566
  677SOL     OW 2074   2.013   2.332   1.155  0.8263  0.1079 -0.1933
  677SOL    HW1 2075   1.997   2.244   1.105  3.0684 -1.3776  2.0256
  677SOL    HW2 2076   2.090   2.313   1.212 -0.6731  0.3438 -0.8780
  678SOL     OW 2077   0.685   0.572   0.412  0.2155 -0.5552  0.1616
  678SOL    HW1 2078   0.676   0.532   0.503  1.7994  0.0308 -3.7423
  678SOL    HW2 2079   0.595   0.571   0.381  1.8726 -1.5488 -3.5953
  679SOL     OW 2080   2.526   2.065   0.044  0.2635 -0.1677 -0.3092
  679SOL    HW1 2081   2.529   1.966   0.029  1.4879 -0.1352  0.7942
  679SOL    HW2 2082   2.429   2.074   0.021 -2.5551  0.8866 -1.1488
  680SOL     OW 2083   0.597   1.837   0.632 -0.1126  0.2934  0.1775
  680SOL    HW1 2084   0.679   1.810   0.591 -0.5267 -0.8068 -0.4168
  680SOL    HW2 2085   0.540   1.839   0.559  3.1587 -0.8201 -0.4753
  681SOL     OW 2086   1.798   0.892   0.649 -0.3070  0.1677 -0.0972
  681SOL    HW1 2087   1.797   0.851   0.559 -1.4076 -2.5454  2.1364
  681SOL    HW2 2088   1.884   0.848   0.674 -1.2315 -0.6836 -0.5555
  682SOL     OW 2089   1.313   2.747   2.382  0.0552  0.6911  0.1651
  682SOL    HW1 2090   1.335   2.670   2.325  0.9530  2.3294 -1.5585
  682SOL    HW2 2091   1.339   2.821   2.322 -2.3485  1.8019  1.5435
  683SOL     OW 2092   0.315   2.665   0.205  0.0923 -0.0061  0.4059
  683SOL    HW1 2093   0.397   2.625   0.236  1.2770  0.7286  0.5870
  683SOL    HW2 2094   0.365   2.709   0.129 -2.4795  1.3463 -0.9131
  684SOL     OW 2095   0.422   2.453   2.017 -0.1041  0.3830 -0.0907
  684SOL    HW1 2096   0.474   2.437   2.102 -0.0313 -0.6162 -0.1102
  684SOL    HW2 2097   0.374   2.528   2.040  0.5826 -1.7285  1.7198
  685SOL     OW 2098   2.533   1.430   2.271 -0.0224 -0.0502  0.2170
  685SOL    HW1 2099   2.567   1.427   2.362 -3.3024 -2.9118  0.4433
  685SOL    HW2 2100   2.483   1.346   2.268  1.0804  0.4185 -1.9522
  686SOL     OW 2101   0.346   2.284   1.693  0.2663  0.4667  0.2202
  686SOL    HW1 2102   0.378   2.244   1.603  1.6541  1.2341  3.9002
  686SOL    HW2 2103   0.430   2.313   1.731  1.2404 -1.3930 -0.2774
  687SOL     OW 2104   1.010   1.176   0.127  0.3451  0.5580 -0.0761
  687SOL    HW1 2105   0.954   1.221   0.058 -1.6100  2.5473 -0.3033
  687SOL    HW2 2106   0.978   1.230   0.204  1.9404 -0.6495  1.4520
  688SOL     OW 2107   1.616   1.139   1.730  0.8353  0.3196 -0.6422
  688SOL    HW1 2108   1.613   1.194   1.805  1.0246  3.0936  2.2364
  688SOL    HW2 2109   1.588   1.054   1.758  0.2613  3.3496  1.7491
  689SOL     OW 2110   2.282   0.427   1.441  0.2661  0.3885  0.4637
  689SOL    HW1 2111   2.188   0.430   1.445  0.3504 -1.0457 -4.0030
  689SOL    HW2 2112   2.306   0.474   1.522 -3.0218  3.8274 -1.4557
  690SOL     OW 2113   2.525   0.696   1.911  0.3449  0.2916 -0.1766
  690SOL    HW1 2114   2.608   0.735   1.877 -0.9635  0.2206  0.0706
  690SOL    HW2 2115   2.545   0.602   1.914  0.7334 -0.1772  1.1355
  691SOL     OW 2116   2.232   1.562   0.749  0.2970  0.7088  0.5440
  691SOL    HW1 2117   2.207   1.561   0.651 -1.4592 -1.9101 -0.2749
  691SOL    HW2 2118   2.324   1.517   0.751 -0.3448 -0.0127 -1.4477
  692SOL     OW 2119   1.976   1.819   0.015  0.2398  0.0647 -0.3323
  692SOL    HW1 2120   1.955   1.889   0.075 -3.7067 -0.6290 -1.3827
  692SOL    HW2 2121   2.006   1.753   0.079  0.8064 -1.8327 -4.6570
  693SOL     OW 2122   1.779   2.935   2.902  0.0648 -0.2088 -0.1933
  693SOL    HW1 2123   1.786   3.029   2.909  1.6831 -1.0567 -0.5800
  693SOL    HW2 2124   1.686   2.935   2.876  1.0582  2.7016 -0.5940
  694SOL     OW 2125   0.222   2.266   1.963  0.3290 -0.2172 -0.4632
  694SOL    HW1 2126   0.219   2.247   1.870  1.4489 -2.6644  1.0013
  694SOL    HW2 2127   0.298   2.335   1.961  1.3257  3.3677  1.0648
  695SOL     OW 2128   0.107   1.937   2.323 -0.0962  0.0814  0.1902
  695SOL    HW1 2129   0.080   1.846   2.325  2.9542  0.6558  0.7849
  695SOL    HW2 2130   0.141   1.956   2.226  0.4617  3.2958 -4.5785
  696SOL     OW 2131   0.340   2.657   2.449  0.0968 -0.0593 -0.5497
  696SOL    HW1 2132   0.401   2.582   2.445 -2.7297  3.1655 -3.8504
  696SOL    HW2 2133   0.307   2.652   2.544  2.5320  0.3007 -0.0369
  697SOL     OW 2134   0.634   1.042   2.476  0.2178 -0.3916 -0.5092
  697SOL    HW1 2135   0.693   1.086   2.416 -0.7182  3.0026 -2.4344
  697SOL    HW2 2136   0.574   1.009   2.411  3.7150  1.2536  1.5466
  698SOL     OW 2137   2.409   1.966   1.701  0.6091 -0.2579  0.5634
  698SOL    HW1 2138   2.479   1.906   1.680 -0.9815  2.5055 -0.5061
  698SOL    HW2 2139   2.385   1.989   1.615  0.4560 -0.8087 -0.4807
  699SOL     OW 2140   0.157   0.314   2.085 -0.1121  0.2283  0.3065
  699SOL    HW1 2141   0.156   0.388   2.144 -3.9934  1.4854  1.8921
  699SOL    HW2 2142   0.215   0.257   2.139 -1.4174  1.7154 -1.6701
  700SOL     OW 2143   2.859   0.736   0.621 -0.1061  0.0249  0.3709
  700SOL    HW1 2144   2.912   0.788   0.550  0.6177 -2.9178  0.5593
  700SOL    HW2 2145   2.883   0.639   0.611 -1.3641  1.1380 -0.6438
  701SOL     OW 2146   2.548   1.661   0.735 -0.4708  0.1218  0.1893
  701SOL    HW1 2147   2.632   1.651   0.691  1.3605 -1.1319 -0.3139
  701SOL    HW2 2148   2.525   1.568   0.754 -2.1748 -0.4635 -1.5277
  702SOL     OW 2149   1.966   0.246   1.225 -0.0508 -0.8321 -0.6413
  702SOL    HW1 2150   2.014   0.244   1.314  3.4634 -1.0747  0.9264
  702SOL    HW2 2151   1.910   0.318   1.255 -1.1306 -1.4827 -3.2640
  703SOL     OW 2152   2.009   1.494   0.933  0.5869 -0.1087  0.1070
  703SOL    HW1 2153   2.042   1.533   0.853 -0.1841  0.6850  2.7832
  703SOL    HW2 2154   1.916   1.527   0.929  1.6364 -0.2816  1.1192
  704SOL     OW 2155   1.646   1.875   1.870  0.0524 -0.3903  0.1655
  704SOL    HW1 2156   1.720   1.869   1.935  0.6238 -0.0124 -0.2805
  704SOL    HW2 2157   1.637   1.778   1.857 -1.6170  2.0559 -0.1387
  705SOL     OW 2158   0.242   1.711   1.297 -0.5828  0.2205 -0.5438
  705SOL    HW1 2159   0.297   1.787   1.326  0.5842 -0.6415 -1.4473
  705SOL    HW2 2160   0.312   1.668   1.245  1.2759 -1.4678 -1.5273
  706SOL     OW 2161   2.836   2.437   1.289 -0.6253  0.4775  0.1563
  706SOL    HW1 2162   2.846   2.434   1.194  3.2832 -0.4492  5.2813
  706SOL    HW2 2163   2.770   2.504   1.298  4.2592 -2.0395  0.4628
  707SOL     OW 2164   0.129   0.227   1.562 -0.0414 -0.1418 -0.5133
  707SOL    HW1 2165   0.183   0.261   1.640 -1.2626 -0.3125  3.1230
  707SOL    HW2 2166   0.130   0.139   1.601  4.2302  1.7469 -1.5327
  708SOL     OW 2167   0.001   0.767   2.291 -0.5085  0.6143  0.5188
  708SOL    HW1 2168  -0.042   0.812   2.368  3.7723  0.1661  0.8152
  708SOL    HW2 2169  -0.012   0.826   2.221  0.7750 -3.4374 -2.5135
  709SOL     OW 2170   2.649   0.717   0.288 -0.6607 -0.6700 -0.0847
  709SOL    HW1 2171   2.674   0.809   0.325 -1.7062  0.7934  1.7695
  709SOL    HW2 2172   2.562   0.732   0.244  0.9914  0.9130  0.8316
  710SOL     OW 2173   2.858   2.001   2.049 -0.2541 -0.6920 -0.3951
  710SOL    HW1 2174   2.848   2.100   2.056 -1.0055  0.9442 -0.7646
  710SOL    HW2 2175   2.956   1.987   2.051 -1.3574 -1.8465  0.0358
  711SOL     OW 2176   0.616   0.511   2.941 -0.7655 -0.1808 -0.2492
  711SOL    HW1 2177   0.576   0.542   2.857 -0.9072  1.9458 -2.3998
  711SOL    HW2 2178   0.651   0.591   2.984  3.4876 -0.7911  0.0797
  712SOL     OW 2179   0.277   1.974   0.593  0.3703 -0.4478 -0.7276
  712SOL    HW1 2180   0.295   1.997   0.684  1.1045 -1.4931  1.8971
  712SOL    HW2 2181   0.218   1.900   0.592  1.5591  2.5943 -0.3818
  713SOL     OW 2182   0.556   2.586   0.290  0.2481  0.5582 -0.6102
  713SOL    HW1 2183   0.516   2.497   0.300 -2.3622 -1.6335  0.4076
  713SOL    HW2 2184   0.642   2.564   0.331 -0.0671 -1.8322 -1.7707
  714SOL     OW 2185   0.642   1.609   2.573  0.0672 -0.1096  0.0580
  714SOL    HW1 2186   0.724   1.591   2.531  2.8377  0.8548  1.1745
  714SOL    HW2 2187   0.673   1.612   2.671 -1.4754  0.2444 -0.3971
  715SOL     OW 2188   2.833   1.415   2.241 -0.4653 -0.1177  0.6648
  715SOL    HW1 2189   2.760   1.474   2.255  1.1900  2.7349  0.5952
  715SOL    HW2 2190   2.906   1.484   2.252  1.4172  1.6763  1.3446
  716SOL     OW 2191   1.511   1.766   0.536 -0.1754 -0.3538 -0.3990
  716SOL    HW1 2192   1.466   1.691   0.579 -0.4256  3.7801 -2.0962
  716SOL    HW2 2193   1.513   1.730   0.449  0.6033 -2.7568  1.6642
  717SOL     OW 2194   0.032   1.728   2.770  0.0430  1.0164 -0.1316
  717SOL    HW1 2195   0.035   1.695   2.681 -2.4870 -0.9527  3.2078
  717SOL    HW2 2196   0.117   1.774   2.773  1.5760 -0.1813  1.4031
  718SOL     OW 2197   1.169   0.556   2.121  0.4333  0.0145  0.7472
  718SOL    HW1 2198   1.091   0.549   2.068  1.5635 -0.7742  0.3081
  718SOL    HW2 2199   1.192   0.461   2.125  2.1717  1.8204  1.3972
  719SOL     OW 2200   2.260   1.949   1.070  0.2182  0.0077 -0.4366
  719SOL    HW1 2201   2.209   1.883   1.119  3.3371  2.8424 -4.3307
  719SOL    HW2 2202   2.346   1.943   1.115 -0.4196  1.7032  0.8797
  720SOL     OW 2203   0.926   1.091   1.914  0.3156  0.5730  0.0805
  720SOL    HW1 2204   0.857   1.164   1.935  0.3804  0.7989 -2.2326
  720SOL    HW2 2205   1.005   1.138   1.952  0.9521  0.3821 -0.0490
  721SOL     OW 2206   0.270   2.236   2.708  1.2329 -0.3579 -0.1790
  721SOL    HW1 2207   0.279   2.133   2.699  0.8957 -4.3615  2.4726
  721SOL    HW2 2208   0.178   2.243   2.738  0.1121  0.6830  2.2772
  722SOL     OW 2209   0.212   2.199   2.335 -0.2318  0.0446 -0.1148
  722SOL    HW1 2210   0.139   2.131   2.332  2.2522 -1.9552  1.5540
  722SOL    HW2 2211   0.199   2.224   2.427 -2.2178 -2.4617  2.3088
  723SOL     OW 2212   0.484   2.973   2.151  0.0653 -0.1442 -0.7079
  723SOL    HW1 2213   0.479   2.965   2.241  0.3730  2.1323  1.2056
  723SOL    HW2 2214   0.397   2.996   2.120  3.0124 -0.6372 -1.7667
  724SOL     OW 2215   0.042   1.107   1.650 -0.0011  0.5332  0.5010
  724SOL    HW1 2216   0.015   1.018   1.662 -4.7386 -1.2101  1.4492
  724SOL    HW2 2217   0.024   1.126   1.550  3.2031  2.2047  0.2975
  725SOL     OW 2218   2.561   2.349   1.051 -0.2423  0.4759 -0.5974
  725SOL    HW1 2219   2.510   2.363   0.971 -0.5586 -1.1800  1.6293
  725SOL    HW2 2220   2.649   2.373   1.028 -2.5118  2.8459  0.9446
  726SOL     OW 2221   0.154   2.978   2.646 -0.8238 -0.8438 -0.1498
  726SOL    HW1 2222   0.196   3.061   2.664  0.1874  0.9290 -2.8780
  726SOL    HW2 2223   0.146   2.938   2.727  3.7872  1.5786 -2.3453
  727SOL     OW 2224   1.571   0.631   1.759 -0.2339  0.0764  0.7917
  727SOL    HW1 2225   1.586   0.640   1.661  0.5051  0.3867  0.0024
  727SOL    HW2 2226   1.549   0.723   1.782  1.2017  0.3338  1.0762
  728SOL     OW 2227   1.469   0.687   0.826  0.7865  0.1409 -0.0865
  728SOL    HW1 2228   1.403   0.709   0.759  0.8697  3.5448  3.1500
  728SOL    HW2 2229   1.504   0.604   0.796  3.0088  1.9709 -1.5447
  729SOL     OW 2230   2.147   1.855   2.073  0.1247 -0.2973 -0.7658
  729SOL    HW1 2231   2.221   1.793   2.088  0.4542  3.8871 -0.9232
  729SOL    HW2 2232   2.167   1.924   2.142  4.7973 -1.1879 -0.7448
  730SOL     OW 2233   2.853   2.476   1.584 -0.0772  0.1725  0.2442
  730SOL    HW1 2234   2.841   2.425   1.510  1.7983  0.4172  2.4431
  730SOL    HW2 2235   2.929   2.530   1.549 -2.5608  1.1122 -1.2469
  731SOL     OW 2236   0.516   2.386   2.267 -0.6636 -0.0767  0.5409
  731SOL    HW1 2237   0.480   2.334   2.334  2.3128 -1.5837 -0.5601
  731SOL    HW2 2238   0.611   2.384   2.291  2.5564  0.9957 -0.0691
  732SOL     OW 2239   1.193   1.335   2.764 -0.6775 -0.2497  0.3463
  732SOL    HW1 2240   1.218   1.430   2.746  3.3413 -0.5565  1.4217
  732SOL    HW2 2241   1.098   1.345   2.785  0.1435  3.1192 -1.3059
  733SOL     OW 2242   2.690   1.216   0.659 -1.1237 -0.2903  0.2240
  733SOL    HW1 2243   2.778   1.214   0.698 -2.5576  1.2842  1.2255
  733SOL    HW2 2244   2.707   1.212   0.560  1.1943 -1.5383 -1.4772
  734SOL     OW 2245   0.122   2.547   0.826 -0.3830 -0.0122 -0.1678
  734SOL    HW1 2246   0.031   2.531   0.834 -3.1040  2.3420 -1.0340
  734SOL    HW2 2247   0.126   2.636   0.858 -1.3223  0.3027  1.2106
  735SOL     OW 2248   1.057   2.776   2.951  0.8587 -0.8157  0.7349
  735SOL    HW1 2249   0.984   2.763   3.004 -1.9684  0.5407 -0.9767
  735SOL    HW2 2250   1.119   2.708   2.974 -2.5247  1.3688  3.1294
  736SOL     OW 2251   1.570   2.956   1.577  0.0912 -0.0881 -0.3284
  736SOL    HW1 2252   1.543   3.044   1.546 -0.8168 -0.2494  1.5965
  736SOL    HW2 2253   1.497   2.920   1.640  0.2981  2.8064 -0.5585
  737SOL     OW 2254   0.287   0.382   0.019 -0.0735 -0.1290  0.3316
  737SOL    HW1 2255   0.290   0.283   0.008 -1.4233 -1.3380  1.3889
  737SOL    HW2 2256   0.334   0.398  -0.061 -0.2300 -1.7364 -4.1535
  738SOL     OW 2257   2.263   2.086   2.578 -0.3107 -0.4255 -0.6113
  738SOL    HW1 2258   2.268   2.132   2.659 -1.4253 -1.0732  0.3335
  738SOL    HW2 2259   2.203   2.020   2.611 -1.0098 -1.5731 -2.0325
  739SOL     OW 2260   0.970   0.217   1.915 -0.0334  0.1982  0.2592
  739SOL    HW1 2261   0.959   0.254   1.822 -1.9579  1.9786 -1.9194
  739SOL    HW2 2262   1.027   0.139   1.892 -2.8532  2.0944 -1.5119
  740SOL     OW 2263   1.388   0.917   0.406  0.2798 -0.3655  0.2093
  740SOL    HW1 2264   1.470   0.864   0.390  3.9664 -3.0286 -0.4093
  740SOL    HW2 2265   1.341   0.919   0.320 -1.1230 -3.2888  2.2203
  741SOL     OW 2266   0.031   2.548   0.133  0.2050  0.1145  0.4213
  741SOL    HW1 2267   0.120   2.579   0.125 -0.2284 -1.3097 -0.1524
  741SOL    HW2 2268  -0.010   2.626   0.187  1.5007  1.0389 -0.9734
  742SOL     OW 2269   0.391   1.252   2.152  0.4768 -0.4116 -0.3052
  742SOL    HW1 2270   0.335   1.232   2.074 -2.7461 -0.7863 -1.5282
  742SOL    HW2 2271   0.365   1.348   2.180  6.1841  0.3213  1.1184
  743SOL     OW 2272   0.542   1.606   1.434  0.0233 -0.0211 -0.0093
  743SOL    HW1 2273   0.535   1.698   1.440 -2.6748  1.5285 -2.2226
  743SOL    HW2 2274   0.618   1.609   1.369  0.8625  0.3390  1.4564
  744SOL     OW 2275   2.926   0.854   1.492 -0.0819  0.4100 -0.3765
  744SOL    HW1 2276   2.842   0.888   1.469 -0.0913  2.2848 -0.2375
  744SOL    HW2 2277   2.914   0.758   1.490 -0.0062 -1.2303 -1.7250
  745SOL     OW 2278   0.251   0.872   1.107  0.2536 -0.4873 -0.4727
  745SOL    HW1 2279   0.289   0.790   1.142  1.2335  1.0741 -1.3835
  745SOL    HW2 2280   0.218   0.844   1.016  0.1144  1.4463  0.3084
  746SOL     OW 2281   0.916   0.937   0.372  0.2956 -0.2566 -0.4212
  746SOL    HW1 2282   0.839   0.897   0.329  3.4271 -0.7970 -0.0523
  746SOL    HW2 2283   0.894   1.030   0.401 -4.0841  0.0554 -2.0450
  747SOL     OW 2284   1.542   2.896   1.112  0.2852 -0.8118  0.0240
  747SOL    HW1 2285   1.500   2.815   1.091 -0.5291  2.0812 -0.7672
  747SOL    HW2 2286   1.506   2.952   1.039 -2.8719  1.5873 -0.6987
  748SOL     OW 2287   1.305   0.016   2.148 -0.3572  0.3368 -0.1640
  748SOL    HW1 2288   1.324  -0.067   2.116 -1.9613  5.0128  3.9799
  748SOL    HW2 2289   1.392   0.048   2.189 -3.3655  0.9915 -0.4571
  749SOL     OW 2290   0.975   0.958   1.130 -0.6099 -1.0791 -0.3610
  749SOL    HW1 2291   0.908   0.951   1.209  0.5992  0.3952  0.9710
  749SOL    HW2 2292   1.048   0.924   1.176  1.8835  1.9326 -0.3666
  750SOL     OW 2293   1.043   1.023   0.790 -0.3204 -0.1868  0.3313
  750SOL    HW1 2294   1.032   1.101   0.848 -1.6538  0.6077  1.7070
  750SOL    HW2 2295   1.056   1.063   0.697 -3.8286 -3.3518  2.0122
  751SOL     OW 2296   0.573   0.206   0.409  0.2217 -0.6421  0.4059
  751SOL    HW1 2297   0.640   0.165   0.468 -2.3522 -3.0549  1.1837
  751SOL    HW2 2298   0.558   0.159   0.325  2.8844  5.3052  2.8462
  752SOL     OW 2299   0.921   0.618   2.785 -0.2653  0.0025  0.0542
  752SOL    HW1 2300   0.849   0.592   2.835  3.4124  2.2796 -0.2974
  752SOL    HW2 2301   0.963   0.531   2.769 -0.9878 -0.9096 -1.1443
  753SOL     OW 2302   0.845   0.549   2.529  0.0677 -0.1534  0.4140
  753SOL    HW1 2303   0.842   0.460   2.564 -2.9661 -0.7119  1.4288
  753SOL    HW2 2304   0.840   0.602   2.609 -1.6375  1.0216 -0.2538
  754SOL     OW 2305   0.726   1.785   1.568 -0.2642 -0.2128 -0.5639
  754SOL    HW1 2306   0.709   1.698   1.617 -4.3353  0.0987  1.0870
  754SOL    HW2 2307   0.645   1.834   1.579 -2.3386  0.8900 -1.4927
  755SOL     OW 2308   0.240   1.504   1.009 -0.1321  0.5135 -0.3134
  755SOL    HW1 2309   0.322   1.534   1.058 -2.1764 -2.0152 -0.9487
  755SOL    HW2 2310   0.167   1.514   1.079 -1.8264 -0.5711  1.5500
  756SOL     OW 2311   0.991   0.870   2.017  0.0636 -0.4135  0.0640
  756SOL    HW1 2312   0.912   0.845   2.071  1.0971 -0.1320  1.4690
  756SOL    HW2 2313   0.949   0.952   1.964  1.2048 -0.3215  3.8174
  757SOL     OW 2314   2.036   0.802   2.844  0.2567  0.6430  0.1207
  757SOL    HW1 2315   1.978   0.824   2.772 -1.6136  1.4519  0.7907
  757SOL    HW2 2316   1.984   0.744   2.901 -3.9108  1.7637  0.2729
  758SOL     OW 2317   1.912   1.196   0.700  0.0934  0.6097 -0.1415
  758SOL    HW1 2318   1.922   1.101   0.677 -0.7251  1.7794  2.1395
  758SOL    HW2 2319   1.962   1.196   0.782  1.8570 -1.2011 -0.3823
  759SOL     OW 2320   2.354   1.193   2.464  0.7732  0.6729  0.2046
  759SOL    HW1 2321   2.268   1.152   2.440 -0.6755 -0.4989  0.4667
  759SOL    HW2 2322   2.399   1.118   2.513  1.3779 -3.3889 -3.9916
  760SOL     OW 2323   2.143   2.686   2.599  0.2148  0.5212  0.5178
  760SOL    HW1 2324   2.104   2.663   2.685  1.4474 -0.8060  0.9862
  760SOL    HW2 2325   2.237   2.690   2.630  1.6038  1.1123 -2.1729
  761SOL     OW 2326   0.712   0.228   2.029  0.6658 -0.0443  0.5062
  761SOL    HW1 2327   0.684   0.237   1.938 -1.5234 -1.9396 -0.8437
  761SOL    HW2 2328   0.805   0.228   2.008  0.2193  1.3765  0.3408
  762SOL     OW 2329   0.219   0.922   0.551  0.3222 -0.0697  0.6618
  762SOL    HW1 2330   0.121   0.897   0.535  3.2465  1.8919 -0.9161
  762SOL    HW2 2331   0.250   0.848   0.603  1.0050  1.7114  2.1640
  763SOL     OW 2332   1.777   0.474   0.420 -0.8732  0.3767 -0.5438
  763SOL    HW1 2333   1.834   0.553   0.430 -3.1013  0.0365  4.7263
  763SOL    HW2 2334   1.831   0.415   0.368 -2.5416 -0.9303  0.0974
  764SOL     OW 2335   1.652   2.486   2.058  0.0009  0.4623 -0.1849
  764SOL    HW1 2336   1.674   2.467   1.973 -1.4705  1.3757 -1.6932
  764SOL    HW2 2337   1.726   2.539   2.093 -2.6502 -2.9999  1.5954
  765SOL     OW 2338   0.083   0.091   0.312 -0.2694  0.2600 -0.2083
  765SOL    HW1 2339   0.115   0.175   0.279 -2.5105 -1.4245 -3.0070
  765SOL    HW2 2340   0.056   0.114   0.401 -1.6551  2.3241  0.4805
  766SOL     OW 2341   2.993   2.260   1.450  0.1471  0.5383  0.0766
  766SOL    HW1 2342   2.979   2.305   1.361 -1.2030  1.0941  0.5766
  766SOL    HW2 2343   3.063   2.318   1.482 -2.4267 -2.9256 -3.2065
  767SOL     OW 2344   1.163   2.045   0.722 -0.0713  0.3882 -0.2931
  767SOL    HW1 2345   1.180   2.029   0.629 -2.6915  4.5544 -2.5565
  767SOL    HW2 2346   1.248   2.020   0.768 -1.4072 -0.0989  0.9817
  768SOL     OW 2347   2.574   0.609   1.256 -0.1221  0.2398 -0.3275
  768SOL    HW1 2348   2.493   0.626   1.199 -1.9669  0.0447 -0.0802
  768SOL    HW2 2349   2.532   0.530   1.298 -2.2025 -1.4835  1.1084
  769SOL     OW 2350   1.516   0.917   1.427  0.1578  0.2699  0.1371
  769SOL    HW1 2351   1.464   0.997   1.444  1.4282 -1.8269 -0.4929
  769SOL    HW2 2352   1.465   0.850   1.473 -2.2465  0.1349 -0.3003
  770SOL     OW 2353   1.944   1.279   2.350 -1.3552 -0.4701  0.0584
  770SOL    HW1 2354   1.991   1.198   2.343 -1.1066 -1.1578 -1.7833
  770SOL    HW2 2355   2.021   1.336   2.375  3.5549 -0.4633 -2.8928
  771SOL     OW 2356   0.175   1.958   0.087 -0.5957 -0.5579 -0.5835
  771SOL    HW1 2357   0.187   1.989   0.174  0.1578  0.3843 -0.5402
  771SOL    HW2 2358   0.227   2.021   0.034  0.6553  2.2564 -1.0634
  772SOL     OW 2359   2.010   2.155   0.549 -0.7503  0.2990 -0.0384
  772SOL    HW1 2360   1.982   2.247   0.529 -1.3168 -1.8271  2.5145
  772SOL    HW2 2361   2.048   2.130   0.465  3.3649  1.1442  3.1003
  773SOL     OW 2362   0.415   2.770   2.982 -0.7319  0.4566  0.5364
  773SOL    HW1 2363   0.482   2.834   2.943 -1.2469  2.8884 -3.9411
  773SOL    HW2 2364   0.450   2.686   2.954  0.0958  0.0222  1.6918
  774SOL     OW 2365   2.950   2.048   0.723 -0.1364  0.3026  0.0438
  774SOL    HW1 2366   2.968   1.953   0.712 -0.9536  5.8676  1.9111
  774SOL    HW2 2367   2.974   2.076   0.636  0.4684 -1.8345  0.0174
  775SOL     OW 2368   1.911   2.907   0.334 -0.5425  0.2685 -0.1446
  775SOL    HW1 2369   1.872   2.894   0.420 -0.5184 -1.0660  1.3392
  775SOL    HW2 2370   2.002   2.862   0.352  1.3055 -0.7734 -1.4099
  776SOL     OW 2371   1.956   2.061   2.632 -0.0059 -0.0343  0.4815
  776SOL    HW1 2372   1.973   2.146   2.585 -0.8766 -1.7656 -0.3460
  776SOL    HW2 2373   1.882   2.033   2.576 -2.5319  4.6419  0.2290
  777SOL     OW 2374   0.779   0.917   0.947 -0.3575  0.5332 -0.4199
  777SOL    HW1 2375   0.861   0.891   1.000  1.9203 -2.3380 -0.0307
  777SOL    HW2 2376   0.747   1.000   0.982  1.8046  1.3175  0.9208
  778SOL     OW 2377   2.075   1.089   2.589  0.0989 -0.2819  0.1041
  778SOL    HW1 2378   2.072   1.080   2.492  1.3202  1.9198 -2.6510
  778SOL    HW2 2379   1.983   1.109   2.615 -2.4645 -0.3809 -1.0649
  779SOL     OW 2380   2.593   1.496   1.735  0.3347 -0.2688  0.0275
  779SOL    HW1 2381   2.541   1.431   1.680  2.4588 -0.3050 -0.7148
  779SOL    HW2 2382   2.687   1.458   1.737  1.4794 -0.6249 -0.8923
  780SOL     OW 2383   2.385   2.918   1.485 -0.1461 -0.6934  0.4367
  780SOL    HW1 2384   2.463   2.911   1.428 -1.8314  2.3591  0.7783
  780SOL    HW2 2385   2.323   2.884   1.423 -1.6391  1.5522  0.9864
  781SOL     OW 2386   2.024   2.248   2.475  0.0681 -0.3822 -0.4097
  781SOL    HW1 2387   2.120   2.281   2.471  0.3331  1.8074 -2.2211
  781SOL    HW2 2388   2.019   2.243   2.376  0.0150 -1.9670 -0.4519
  782SOL     OW 2389   0.441   1.379   0.703 -0.5136  0.1132 -0.3087
  782SOL    HW1 2390   0.462   1.464   0.753  0.2065 -2.0413  1.2282
  782SOL    HW2 2391   0.520   1.327   0.702 -0.5143  1.7764  3.4585
  783SOL     OW 2392   1.644   1.028   1.138 -0.6071  0.7257 -0.0337
  783SOL    HW1 2393   1.605   0.989   1.217  0.1634  3.5809 -1.3442
  783SOL    HW2 2394   1.737   0.995   1.143  0.6218  0.1599 -0.7662
  784SOL     OW 2395   0.813   2.578   2.134 -0.3224 -0.4016  0.2094
  784SOL    HW1 2396   0.722   2.619   2.151 -1.3766  1.5730  3.1599
  784SOL    HW2 2397   0.797   2.485   2.114  0.3051 -2.8604 -2.0355
  785SOL     OW 2398   1.468   0.483   2.539  0.1398 -0.0373 -0.0325
  785SOL    HW1 2399   1.436   0.442   2.460  1.9099  1.6753  0.1910
  785SOL    HW2 2400   1.547   0.424   2.543  1.5880 -0.6704 -2.4920
  786SOL     OW 2401   0.600   1.407   1.018  0.0366 -0.0225 -0.1532
  786SOL    HW1 2402   0.686   1.444   1.025  0.2497 -3.9133  0.3487
  786SOL    HW2 2403   0.544   1.461   0.954  0.5522  1.9431 -1.7522
  787SOL     OW 2404   1.248   2.960   0.621 -0.0548 -0.2697 -0.5656
  787SOL    HW1 2405   1.206   2.916   0.702  2.5662 -0.3805 -1.2772
  787SOL    HW2 2406   1.237   2.876   0.563  1.9312  0.0938  2.9920
  788SOL     OW 2407   0.017   2.506   2.822 -0.4548  0.1897  0.3114
  788SOL    HW1 2408  -0.029   2.432   2.872 -0.8111 -1.0365  2.0326
  788SOL    HW2 2409  -0.006   2.585   2.874  0.9803 -2.0972 -3.7737
  789SOL     OW 2410   0.198   1.244   1.969  0.0996 -0.0423  0.2852
  789SOL    HW1 2411   0.163   1.330   1.982 -0.4214  0.4519  1.8223
  789SOL    HW2 2412   0.237   1.249   1.880  1.2923 -0.0702  1.5189
  790SOL     OW 2413   2.429   1.552   2.772  0.5291 -0.1851 -0.3727
  790SOL    HW1 2414   2.487   1.503   2.829 -1.1399 -4.5479  0.3962
  790SOL    HW2 2415   2.342   1.522   2.799  1.9978  3.4643 -0.8309
  791SOL     OW 2416   1.762   2.393   2.774 -0.2973  0.3944  0.4880
  791SOL    HW1 2417   1.744   2.459   2.707  0.1044 -4.0369 -2.0275
  791SOL    HW2 2418   1.678   2.351   2.773 -0.0118  1.7488  0.4839
  792SOL     OW 2419   1.827   1.464   1.286  0.4578 -0.2678  0.0979
  792SOL    HW1 2420   1.862   1.370   1.288 -0.2338  0.5586 -0.5358
  792SOL    HW2 2421   1.908   1.498   1.245 -0.4261  0.8338  0.0985
  793SOL     OW 2422   1.742   1.156   2.545  1.0412 -0.5478 -0.3388
  793SOL    HW1 2423   1.770   1.223   2.474  2.0141 -0.9891 -3.1975
  793SOL    HW2 2424   1.676   1.210   2.599  0.6000  0.9941 -0.7483
  794SOL     OW 2425   1.200   1.994   1.244 -0.0969  0.5431  0.0068
  794SOL    HW1 2426   1.261   1.932   1.287  1.1184  3.8774 -1.5302
  794SOL    HW2 2427   1.209   1.962   1.163 -0.3236 -1.4385  2.8511
  795SOL     OW 2428   0.985   0.344   2.742  0.3821  0.0197  0.0681
  795SOL    HW1 2429   1.043   0.315   2.826  1.0707  0.6093 -1.1485
  795SOL    HW2 2430   0.989   0.253   2.705  1.7917  0.0602  0.3830
  796SOL     OW 2431   2.776   1.579   0.513  0.3446  0.2306  0.3046
  796SOL    HW1 2432   2.825   1.617   0.445 -0.8202 -0.5807  1.7612
  796SOL    HW2 2433   2.849   1.521   0.554 -0.8640  1.1734 -1.7037
  797SOL     OW 2434   1.758   1.853   2.854 -0.5568 -0.3371  1.1723
  797SOL    HW1 2435   1.706   1.929   2.832 -0.7928  0.2130  0.3609
  797SOL    HW2 2436   1.789   1.880   2.943 -0.9236  0.3588 -5.1833
  798SOL     OW 2437   2.082   0.947   0.613 -0.2757 -0.1478 -0.2764
  798SOL    HW1 2438   2.162   1.007   0.599 -0.4351  3.1538 -0.4258
  798SOL    HW2 2439   2.066   0.918   0.526  2.6648  1.4450  1.5835
  799SOL     OW 2440   0.671   1.264   2.620 -0.6251  0.1548 -0.6206
  799SOL    HW1 2441   0.648   1.307   2.540  2.9257  0.2774  0.5419
  799SOL    HW2 2442   0.667   1.170   2.588 -0.9173  0.5937 -1.1274
  800SOL     OW 2443   2.041   1.954   1.856  0.4562  0.8077 -0.1873
  800SOL    HW1 2444   2.118   1.918   1.811 -0.6860  0.8139  3.6034
  800SOL    HW2 2445   2.061   1.918   1.946  0.4267  1.6032 -3.6799
  801SOL     OW 2446   2.047   0.680   2.496  0.2081  0.3251  0.3583
  801SOL    HW1 2447   2.088   0.616   2.560 -0.1818 -0.7685 -2.9594
  801SOL    HW2 2448   2.101   0.664   2.413 -0.9516 -0.0326  2.4796
  802SOL     OW 2449   1.210   0.358   1.318 -0.1214  0.1804  0.0533
  802SOL    HW1 2450   1.130   0.344   1.267  0.3502 -1.2561 -0.8332
  802SOL    HW2 2451   1.278   0.337   1.239 -4.0083 -0.6737 -1.1852
  803SOL     OW 2452   2.676   1.936   2.479 -0.3000  0.5729 -0.5604
  803SOL    HW1 2453   2.606   1.992   2.443 -1.4944  0.6800 -0.8024
  803SOL    HW2 2454   2.633   1.881   2.554  0.9918  1.5153  0.1100
  804SOL     OW 2455   1.454   1.052   2.608 -0.6259 -0.0212 -0.5991
  804SOL    HW1 2456   1.554   1.038   2.603  0.2146 -1.4698  0.2717
  804SOL    HW2 2457   1.423   1.028   2.514  1.0880 -2.1419  0.5422
  805SOL     OW 2458   1.811   1.585   0.481 -0.2143 -0.5169 -0.0870
  805SOL    HW1 2459   1.802   1.654   0.545  4.0865  0.4855  1.1255
  805SOL    HW2 2460   1.756   1.523   0.528  1.0419 -2.0120  0.5273
  806SOL     OW 2461   2.248   0.727   1.485 -1.1531  0.0223 -0.3364
  806SOL    HW1 2462   2.318   0.787   1.480 -0.6987 -1.5317  0.9059
  806SOL    HW2 2463   2.271   0.678   1.563 -4.9500 -0.4647 -1.0487
  807SOL     OW 2464   0.862   1.501   2.437 -0.0481 -0.2461 -0.0322
  807SOL    HW1 2465   0.801   1.523   2.360 -2.5577  3.1995  1.2667
  807SOL    HW2 2466   0.942   1.462   2.393  1.7620  3.1552 -0.5795
  808SOL     OW 2467   2.421   2.834   2.438  0.2397  0.2128 -0.0766
  808SOL    HW1 2468   2.373   2.908   2.487 -0.6093 -1.1081  1.4425
  808SOL    HW2 2469   2.516   2.866   2.435 -0.8315 -1.6767  0.7429
  809SOL     OW 2470   1.258   2.376   1.625 -0.1921 -0.5585  0.7207
  809SOL    HW1 2471   1.185   2.316   1.669 -1.4102  1.1204  0.3262
  809SOL    HW2 2472   1.321   2.302   1.595 -0.7631 -0.0846 -0.5349
  810SOL     OW 2473   0.765   1.346   1.374 -0.4386  0.0512 -0.5994
  810SOL    HW1 2474   0.732   1.358   1.464  1.9836 -0.5011 -3.0614
  810SOL    HW2 2475   0.771   1.440   1.349 -1.8317  1.4507  0.9488
  811SOL     OW 2476   1.664   2.251   1.453  0.7204 -0.9659  0.2402
  811SOL    HW1 2477   1.571   2.224   1.442  2.3474  0.4552  3.3156
  811SOL    HW2 2478   1.676   2.309   1.375  0.4215  1.1887  0.5670
  812SOL     OW 2479   0.471   0.962   1.396 -0.2624 -0.6935 -0.2811
  812SOL    HW1 2480   0.389   0.928   1.425 -1.3241  2.3000 -4.5353
  812SOL    HW2 2481   0.494   1.025   1.465 -1.5017  2.0111 -2.4528
  813SOL     OW 2482   0.060   2.831   2.286 -0.5456  0.0460 -0.0723
  813SOL    HW1 2483   0.117   2.757   2.316  0.0992  1.1909 -1.0779
  813SOL    HW2 2484  -0.028   2.795   2.291  1.3831 -0.0823 -1.3199
  814SOL     OW 2485   0.339   1.420   2.499 -0.4350 -0.2370 -0.6536
  814SOL    HW1 2486   0.245   1.386   2.507  1.5999  0.6471  0.7710
  814SOL    HW2 2487   0.382   1.415   2.590 -1.6522  2.3527 -1.2005
  815SOL     OW 2488   2.297   1.553   0.258  0.4042  0.5902  0.3042
  815SOL    HW1 2489   2.354   1.505   0.195  3.4300  0.2675  0.6983
  815SOL    HW2 2490   2.207   1.524   0.250  0.0092  0.4215 -1.9672
  816SOL     OW 2491   1.298   1.091   1.026  0.2647  0.3233  0.3049
  816SOL    HW1 2492   1.284   1.092   1.121  2.0890  2.0095 -1.9084
  816SOL    HW2 2493   1.334   1.000   1.009  1.9665  0.0149  1.6526
  817SOL     OW 2494   2.153   0.032   0.118  0.0791  0.0982  0.1541
  817SOL    HW1 2495   2.220   0.093   0.099  1.0495  2.5367 -0.7900
  817SOL    HW2 2496   2.176  -0.007   0.204 -0.3509  1.8963  0.4653
  818SOL     OW 2497   2.466   2.979   0.569  0.0658  1.1306  0.0183
  818SOL    HW1 2498   2.488   3.000   0.658  1.5130  0.5305 -0.6660
  818SOL    HW2 2499   2.558   2.950   0.544 -0.4920 -2.3236  1.9982
  819SOL     OW 2500   0.729   1.658   1.248  0.7439  0.5751 -0.2825
  819SOL    HW1 2501   0.689   1.688   1.168 -3.9501  1.5205 -0.5898
  819SOL    HW2 2502   0.796   1.731   1.261 -0.0973  1.4604  1.2074
  820SOL     OW 2503   0.207   0.059   2.222 -0.5821 -0.1789 -0.0040
  820SOL    HW1 2504   0.163  -0.030   2.240 -1.4280  2.6386 -1.1785
  820SOL    HW2 2505   0.188   0.105   2.310  1.0844  3.7619  0.1224
  821SOL     OW 2506   1.373   0.341   2.343 -0.3498  0.2170  0.0048
  821SOL    HW1 2507   1.282   0.310   2.366 -1.5236  1.4732  0.2686
  821SOL    HW2 2508   1.415   0.250   2.331 -2.9071  3.2779  2.0062
  822SOL     OW 2509   1.624   1.475   2.663  0.6135  0.3546  0.2480
  822SOL    HW1 2510   1.586   1.435   2.582 -2.1538 -2.1484  2.9858
  822SOL    HW2 2511   1.557   1.509   2.715 -0.8344  0.1569  1.0745
  823SOL     OW 2512   1.133   2.088   2.412 -0.3909 -0.4742  0.0378
  823SOL    HW1 2513   1.054   2.034   2.385 -2.3965 -4.7002 -0.7715
  823SOL    HW2 2514   1.110   2.082   2.509  0.9232  1.2043  0.8979
  824SOL     OW 2515   0.603   2.059   0.321  0.9461 -0.4352 -0.6992
  824SOL    HW1 2516   0.602   2.101   0.230 -0.0515 -0.2274 -1.6020
  824SOL    HW2 2517   0.506   2.037   0.335  0.2877 -2.8077 -0.1174
  825SOL     OW 2518   0.782   0.714   1.510  0.0609  0.5928  0.0089
  825SOL    HW1 2519   0.803   0.786   1.447  0.0956 -2.7208 -1.1452
  825SOL    HW2 2520   0.692   0.735   1.540 -1.9404  0.8156  1.2952
  826SOL     OW 2521   1.532   0.884   1.855  0.1659  0.4336 -0.0036
  826SOL    HW1 2522   1.439   0.880   1.886  1.2266  4.0393 -2.7388
  826SOL    HW2 2523   1.569   0.911   1.947 -1.3419 -1.0320  1.2408
  827SOL     OW 2524   2.006   2.598   1.927  0.7395  0.1285 -0.0068
  827SOL    HW1 2525   1.942   2.634   1.993  3.2171  1.9671  2.0725
  827SOL    HW2 2526   2.034   2.691   1.907  2.1454  0.1805 -1.3584
  828SOL     OW 2527   2.722   2.875   0.514  0.2899  0.0568  0.3590
  828SOL    HW1 2528   2.785   2.799   0.520 -0.5183 -1.8671 -0.0890
  828SOL    HW2 2529   2.789   2.940   0.548 -1.3667 -1.1269  1.2282
  829SOL     OW 2530   1.425   1.437   1.123  0.0539  0.7938  0.2396
  829SOL    HW1 2531   1.494   1.397   1.063  0.5030  1.9655 -0.7909
  829SOL    HW2 2532   1.473   1.393   1.192 -1.0752 -0.9893 -0.2182
  830SOL     OW 2533   2.412   1.734   1.327 -0.1311  0.3573  0.9271
  830SOL    HW1 2534   2.396   1.818   1.369  0.1538 -1.0046 -0.5412
  830SOL    HW2 2535   2.328   1.708   1.279 -0.1184  0.8711 -1.1290
  831SOL     OW 2536   2.016   0.310   0.963 -0.7964 -0.1228 -0.0300
  831SOL    HW1 2537   1.963   0.396   0.960 -3.1382 -1.8465  3.4941
  831SOL    HW2 2538   2.007   0.269   1.052  0.5899 -1.3085 -4.2699
  832SOL     OW 2539   2.879   1.398   1.546 -0.1806 -0.0334  0.5218
  832SOL    HW1 2540   2.947   1.387   1.478  0.8190  1.6762 -0.9552
  832SOL    HW2 2541   2.858   1.490   1.535  0.2094 -2.2097  0.9651
  833SOL     OW 2542   2.367   2.728   2.217  0.0638  0.1972 -0.3716
  833SOL    HW1 2543   2.358   2.739   2.318  1.3675  0.9492  0.1155
  833SOL    HW2 2544   2.409   2.634   2.201  1.3900 -0.8406  0.7828
  834SOL     OW 2545   2.682   2.894   2.489 -0.0255 -0.5579  0.1001
  834SOL    HW1 2546   2.748   2.969   2.494  1.6010  0.0513 -0.7729
  834SOL    HW2 2547   2.652   2.886   2.583 -1.4275  1.0054  2.4192
  835SOL     OW 2548   0.716   1.799   0.001  0.5472  0.0627 -0.5153
  835SOL    HW1 2549   0.695   1.712  -0.041  0.0405 -0.6972 -2.2617
  835SOL    HW2 2550   0.641   1.851  -0.024 -0.0879  0.7949 -0.3029
  836SOL     OW 2551   0.124   0.908   0.204  0.8324 -0.4763 -0.8687
  836SOL    HW1 2552   0.125   1.006   0.206  0.4818 -1.3181  0.8326
  836SOL    HW2 2553   0.221   0.879   0.218  0.8665 -3.5735 -1.1947
  837SOL     OW 2554   0.088   0.862   2.685  0.4429  0.6809  0.3133
  837SOL    HW1 2555   0.093   0.917   2.761 -2.2264 -0.9770  1.2150
  837SOL    HW2 2556   0.070   0.772   2.729  1.7031 -0.0031  1.2659
  838SOL     OW 2557   2.118   2.430   2.704 -0.9740 -0.2173  0.2190
  838SOL    HW1 2558   2.067   2.357   2.744  2.4069 -1.7926 -1.9475
  838SOL    HW2 2559   2.047   2.472   2.657 -3.3706 -0.1218 -1.4747
  839SOL     OW 2560   0.618   0.268   1.443 -0.1060  0.2339  0.0953
  839SOL    HW1 2561   0.658   0.342   1.392 -1.8149  0.9171  0.5497
  839SOL    HW2 2562   0.664   0.195   1.399 -1.4548  2.1868  3.0266
  840SOL     OW 2563   2.761   1.211   2.086  0.6355  0.8579  1.0079
  840SOL    HW1 2564   2.797   1.253   2.007  2.5551 -1.8272  0.3984
  840SOL    HW2 2565   2.782   1.282   2.150  1.0542  0.1548  0.4816
  841SOL     OW 2566   1.789   2.848   2.627 -0.2425  0.0909  0.0900
  841SOL    HW1 2567   1.781   2.875   2.719 -2.4213  2.2911  1.0777
  841SOL    HW2 2568   1.835   2.760   2.634  0.0328  2.1533  1.3314
  842SOL     OW 2569   2.416   0.388   0.226 -0.2563  0.4312  0.3862
  842SOL    HW1 2570   2.393   0.325   0.158  0.2649  1.0427  2.7718
  842SOL    HW2 2571   2.442   0.321   0.299  2.5935 -0.0514  0.9953
  843SOL     OW 2572   0.769   2.835   2.463  0.1533  0.3227 -0.2512
  843SOL    HW1 2573   0.775   2.860   2.552 -0.9941 -1.4622  2.6584
  843SOL    HW2 2574   0.863   2.839   2.438  1.0695  1.6173 -0.7211
  844SOL     OW 2575   0.686   2.130   2.688 -0.1083 -0.4568 -0.4820
  844SOL    HW1 2576   0.734   2.101   2.767 -0.2494 -0.6838 -0.2273
  844SOL    HW2 2577   0.664   2.045   2.652  0.5851 -1.9192  3.3378
  845SOL     OW 2578   2.175   2.443   0.327 -1.0202 -0.7046 -0.3350
  845SOL    HW1 2579   2.233   2.367   0.339  0.1233  1.6776 -0.1102
  845SOL    HW2 2580   2.186   2.483   0.423  2.6612  0.2351 -1.6484
  846SOL     OW 2581   0.892   1.245   0.456  0.0493 -0.0029  0.0028
  846SOL    HW1 2582   0.969   1.279   0.493 -5.1013 -1.4881  2.1342
  846SOL    HW2 2583   0.831   1.318   0.476  2.5218 -0.1514 -1.4276
  847SOL     OW 2584   0.002   1.497   2.963  0.6460 -0.2087  0.1850
  847SOL    HW1 2585   0.057   1.572   2.983  2.8172 -2.5133  1.4442
  847SOL    HW2 2586  -0.025   1.521   2.869  2.8035  0.1362  2.7931
  848SOL     OW 2587   0.120   1.018   2.128 -0.7815 -0.8962 -0.3913
  848SOL    HW1 2588   0.165   1.078   2.066  2.2850 -0.5892  2.5310
  848SOL    HW2 2589   0.189   0.949   2.147  0.1522  0.6473 -2.8890
  849SOL     OW 2590   2.503   0.904   2.848 -0.7713  0.2672  0.2713
  849SOL    HW1 2591   2.428   0.836   2.849  1.7125 -1.2956 -2.0169
  849SOL    HW2 2592   2.579   0.867   2.900  1.6596 -0.3620 -1.1253
  850SOL     OW 2593   2.928   1.100   0.249  0.2604 -0.1146  0.1122
  850SOL    HW1 2594   2.895   1.026   0.291 -3.8656  2.1632  1.4956
  850SOL    HW2 2595   2.980   1.148   0.318  0.5917 -0.4936 -0.4227
  851SOL     OW 2596   1.971   2.034   1.334 -0.0343 -0.0583 -0.5962
  851SOL    HW1 2597   2.026   2.111   1.352 -0.4057  1.1074  0.1432
  851SOL    HW2 2598   1.930   2.002   1.420 -2.8843 -0.9692  2.6021
  852SOL     OW 2599   0.117   2.008   2.030 -0.1862  0.1486 -0.3608
  852SOL    HW1 2600   0.164   2.086   1.997 -0.5590  2.1771  1.1227
  852SOL    HW2 2601   0.126   1.949   1.957 -0.0204  2.5037  1.8526
  853SOL     OW 2602   0.073   0.159   2.949  0.0304  0.3948 -0.1561
  853SOL    HW1 2603   0.032   0.082   2.902 -1.1144  1.1166 -3.0637
  853SOL    HW2 2604   0.164   0.128   2.951  2.0324  1.7771  3.8225
  854SOL     OW 2605   1.197   0.030   0.168  0.9174 -0.0468  0.6100
  854SOL    HW1 2606   1.225   0.066   0.251  1.0038 -0.3234  0.7258
  854SOL    HW2 2607   1.122  -0.023   0.192 -0.8738 -0.6129 -0.4714
  855SOL     OW 2608   2.564   1.397   2.545 -0.1041 -0.2891  0.4671
  855SOL    HW1 2609   2.520   1.471   2.592 -0.3701 -0.9521  0.3914
  855SOL    HW2 2610   2.506   1.327   2.580  0.7546  0.3983  1.5632
  856SOL     OW 2611   1.721   1.620   1.777 -0.5424 -0.4524 -0.0376
  856SOL    HW1 2612   1.757   1.586   1.693  1.8991  2.1892  1.6063
  856SOL    HW2 2613   1.802   1.638   1.829  2.6399  0.6913  1.2726
  857SOL     OW 2614   2.471   2.475   2.180  0.5088  0.0051  0.0949
  857SOL    HW1 2615   2.486   2.391   2.127 -0.2434 -0.2768  0.7951
  857SOL    HW2 2616   2.556   2.477   2.232  2.3980 -0.9489 -1.6336
  858SOL     OW 2617   0.894   1.910   1.416 -0.2851  0.1516  0.0121
  858SOL    HW1 2618   0.955   1.844   1.375 -0.5414 -1.3556  1.7334
  858SOL    HW2 2619   0.822   1.856   1.445 -1.4900 -1.6010 -1.3812
  859SOL     OW 2620   1.173   0.583   2.479  0.8097 -0.0093 -0.4926
  859SOL    HW1 2621   1.239   0.563   2.413  0.9599  1.5021  0.9117
  859SOL    HW2 2622   1.102   0.517   2.460  1.4105  1.9591 -4.3782
  860SOL     OW 2623   1.213   1.485   1.919  0.2085  0.2492 -0.0404
  860SOL    HW1 2624   1.278   1.505   1.848  1.4452  0.6651 -0.3072
  860SOL    HW2 2625   1.239   1.564   1.971 -0.2389  2.4205 -2.6426
  861SOL     OW 2626   0.996   1.271   1.268 -0.3193  0.0477  0.4591
  861SOL    HW1 2627   0.979   1.193   1.222  1.3755 -2.0637 -0.4771
  861SOL    HW2 2628   0.916   1.295   1.313  0.5445  0.9493 -4.5757
  862SOL     OW 2629   1.654   0.185   2.952 -0.2963 -0.1508 -0.1295
  862SOL    HW1 2630   1.667   0.271   2.992 -0.5315 -0.4838  0.4329
  862SOL    HW2 2631   1.666   0.125   3.029  0.2182 -2.1295 -3.2700
  863SOL     OW 2632   2.421   0.703   0.773  0.5789 -0.7054  0.3356
  863SOL    HW1 2633   2.399   0.787   0.734 -1.0240  2.7901 -2.1958
  863SOL    HW2 2634   2.516   0.714   0.804  1.7449 -0.2211 -1.1662
  864SOL     OW 2635   0.920   2.654   0.385 -0.1714 -0.2052 -0.1100
  864SOL    HW1 2636   0.914   2.556   0.380  1.6049  1.4603 -0.6534
  864SOL    HW2 2637   1.010   2.668   0.426 -0.7222  0.7430 -0.2066
  865CL      CL 2638   0.482   0.808   2.278  0.0496  0.3808 -0.5261
   3.00000   3.00000   3.00000
