Protein in water
 2638
    1ACE    CH3    1   0.387   2.560   1.372  0.0911  0.4564  0.3349
    1ACE   HH31    2   0.417   2.511   1.282 -2.0350  0.9370 -1.3482
    1ACE   HH32    3   0.408   2.499   1.463  1.6749  0.8422 -1.6091
    1ACE   HH33    4   0.273   2.571   1.388 -1.5553  2.3200 -1.1075
    1ACE      C    5   0.441   2.699   1.389  0.3957  0.7165  0.6846
    1ACE      O    6   0.416   2.794   1.310 -0.3242 -1.0957 -0.5728
    2ALA      N    7   0.521   2.725   1.505 -0.1331  0.4494  1.0357
    2ALA     HN    8   0.507   2.672   1.585 -0.8350 -0.8074 -1.5644
    2ALA     CA    9   0.565   2.863   1.537 -0.2692  1.0733 -0.4004
    2ALA     HA   10   0.487   2.934   1.541  1.4318  1.7583 -1.5667
    2ALA     CB   11   0.615   2.858   1.685  0.4351 -0.5795 -1.0279
    2ALA    HB1   12   0.542   2.803   1.743 -3.7589 -1.0154  1.1975
    2ALA    HB2   13   0.710   2.806   1.689  2.6875  2.4629  1.1231
    2ALA    HB3   14   0.626   2.958   1.728  0.6433 -1.3842 -2.1452
    2ALA      C   15   0.661   2.925   1.445 -0.0744 -0.9282 -0.2137
    2ALA      O   16   0.684   3.045   1.445  0.0208 -0.5946  0.7490
    3ARG      N   17   0.745   2.847   1.377  0.0880  0.2136  0.8175
    3ARG     HN   18   0.734   2.747   1.394 -0.9136  0.5408  0.8701
    3ARG     CA   19   0.849   2.892   1.279 -0.0660 -0.1949 -0.0056
    3ARG     HA   20   0.859   2.998   1.285  0.0690 -1.1621  1.5159
    3ARG     CB   21   0.991   2.825   1.297 -0.4364 -0.3669 -0.1831
    3ARG    HB1   22   0.990   2.720   1.267  0.6699 -0.3439 -0.3847
    3ARG    HB2   23   1.071   2.875   1.238 -0.2869  0.5268 -2.6142
    3ARG     CG   24   1.059   2.860   1.428  0.0970 -0.6589 -0.2396
    3ARG    HG1   25   0.998   2.829   1.509 -1.0461 -0.9365 -2.2633
    3ARG    HG2   26   1.150   2.799   1.437 -0.8657  0.5499  1.6239
    3ARG     CD   27   1.105   3.011   1.440 -0.5976 -0.3576 -0.2200
    3ARG    HD1   28   1.162   3.047   1.345 -0.3340 -1.4120 -5.8861
    3ARG    HD2   29   1.013   3.078   1.454 -0.0126 -2.0455 -1.6254
    3ARG     NE   30   1.197   3.008   1.559  0.1490 -0.1013  0.3018
    3ARG     HE   31   1.248   2.924   1.575  0.3367  1.8051  4.1891
    3ARG     CZ   32   1.255   3.124   1.596 -0.5580 -0.2478  0.7617
    3ARG    NH1   33   1.245   3.237   1.526 -0.2802 -0.2272  0.1434
    3ARG   HH11   34   1.180   3.239   1.448 -1.9175 -0.0305 -3.5411
    3ARG   HH12   35   1.288   3.316   1.562  1.3650 -0.7113  0.9238
    3ARG    NH2   36   1.318   3.124   1.720 -0.4994 -0.4387  0.0624
    3ARG   HH21   37   1.313   3.031   1.769 -2.1041  1.2667 -1.6582
    3ARG   HH22   38   1.377   3.198   1.749 -0.3951  1.0503  0.5522
    3ARG      C   39   0.806   2.860   1.143 -0.5768  0.1025 -0.0675
    3ARG      O   40   0.852   2.925   1.049  0.6839 -0.2152 -0.0253
    4ASN      N   41   0.710   2.772   1.119 -0.2626 -0.3909  0.3712
    4ASN     HN   42   0.668   2.736   1.191  1.7123  0.6128  2.3444
    4ASN     CA   43   0.647   2.752   0.991  0.9881  0.2315 -0.0486
    4ASN     HA   44   0.719   2.731   0.913  1.3437 -4.2288 -3.9536
    4ASN     CB   45   0.555   2.631   1.006 -0.0089  0.1484  0.5383
    4ASN    HB1   46   0.493   2.607   0.923  0.7328 -0.7748 -1.5253
    4ASN    HB2   47   0.497   2.670   1.099  2.0178  4.1925 -1.5089
    4ASN     CG   48   0.637   2.505   1.044 -0.3569 -0.0295 -0.5138
    4ASN    OD1   49   0.656   2.464   1.157  0.9274  0.3232 -0.2060
    4ASN    ND2   50   0.709   2.448   0.939  0.6208  0.1054  1.0649
    4ASN   HD21   51   0.758   2.365   0.960  1.5922 -0.4974  2.1883
    4ASN   HD22   52   0.703   2.479   0.844 -1.5204 -0.9595 -0.1274
    4ASN      C   53   0.569   2.869   0.931 -0.1059 -0.1942 -0.1575
    4ASN      O   54   0.571   2.889   0.811 -0.3779  0.9694 -0.0225
    5CT3      N   55   0.491   2.947   1.011 -1.6096 -0.1368 -0.1664
    5CT3     HN   56   0.499   2.922   1.107 -0.0535  2.2089 -1.8254
    5CT3    CH3   57   0.410   3.060   0.963  0.2244 -0.3690  0.3230
    5CT3   HH31   58   0.313   3.032   0.922  2.9995  1.2135 -1.2905
    5CT3   HH32   59   0.389   3.139   1.037 -1.1969 -0.8441 -0.6895
    5CT3   HH33   60   0.464   3.119   0.886  2.2508  3.0973  1.9086
    6SOL     OW   61   1.873   1.938   0.643  0.2909 -0.0101 -0.2224
    6SOL    HW1   62   1.793   1.879   0.653 -1.2949  0.3729  3.2595
    6SOL    HW2   63   1.934   1.880   0.688  0.2249 -0.4857  0.6518
    7SOL     OW   64   0.770   2.703   0.008  0.5027  0.4059 -0.0425
    7SOL    HW1   65   0.778   2.727   0.099 -0.7679 -2.9671  2.6904
    7SOL    HW2   66   0.783   2.796  -0.026 -0.6077 -0.7898 -0.7580
    8SOL     OW   67   2.173   2.555   1.565  0.2734 -0.2648 -0.7134
    8SOL    HW1   68   2.230   2.607   1.623  2.1281 -2.6499 -1.2473
    8SOL    HW2   69   2.126   2.630   1.522  2.0890 -0.5566  1.3628
    9SOL     OW   70   0.942   0.187   0.219 -0.6590 -0.1993  0.1065
    9SOL    HW1   71   0.857   0.207   0.254  0.1318  1.3348  2.1381
    9SOL    HW2   72   0.951   0.095   0.229  0.4204  2.5082  3.0207
   10SOL     OW   73   0.413   1.381   2.421  0.8320  0.0313 -0.2361
   10SOL    HW1   74   0.383   1.399   2.329  2.0300  0.3087  1.3366
   10SOL    HW2   75   0.442   1.290   2.410 -0.7879  3.5312 -0.8537
   11SOL     OW   76   2.900   2.683   1.314 -0.6495  0.2226 -0.5688
   11SOL    HW1   77   2.830   2.666   1.381  0.0913 -1.0889 -1.3405
   11SOL    HW2   78   2.967   2.639   1.355  1.3518  2.7329  1.5267
   12SOL     OW   79   2.147   0.847   1.620 -0.2296 -0.3880  0.1575
   12SOL    HW1   80   2.148   0.849   1.715 -0.5128 -0.0389 -1.1738
   12SOL    HW2   81   2.122   0.757   1.600  1.7336 -0.1420  1.1559
   13SOL     OW   82   1.433   0.865   0.355  0.5012  0.0227 -0.1408
   13SOL    HW1   83   1.501   0.843   0.288 -1.9994 -1.2278  0.3473
   13SOL    HW2   84   1.356   0.814   0.320 -1.1810  0.1649 -0.6338
   14SOL     OW   85   1.018   2.566   0.239 -0.6806  0.2996 -0.6944
   14SOL    HW1   86   1.108   2.539   0.219  2.5358 -2.9584 -0.3676
   14SOL    HW2   87   0.991   2.630   0.177  2.8477 -1.4142  4.1521
   15SOL     OW   88   0.110   1.595   2.641 -0.2951  0.0018 -0.1011
   15SOL    HW1   89   0.171   1.592   2.725  3.0771  4.0536 -1.6471
   15SOL    HW2   90   0.088   1.504   2.636  2.0368  2.1904 -0.3768
   16SOL     OW   91   1.254   1.119   1.148  0.0449  0.4083  0.8419
   16SOL    HW1   92   1.183   1.149   1.093  1.2909  0.0996 -0.9241
   16SOL    HW2   93   1.333   1.141   1.097 -1.0489  2.0551 -2.7770
   17SOL     OW   94   0.984   1.808   2.257  1.0972 -0.5609 -0.0821
   17SOL    HW1   95   1.079   1.835   2.255 -1.4485  0.8676 -0.9701
   17SOL    HW2   96   0.982   1.731   2.195  1.9246 -2.6786  1.4364
   18SOL     OW   97   0.168   0.594   0.474 -0.0493 -0.0457 -0.1641
   18SOL    HW1   98   0.157   0.536   0.394  0.9210 -2.7870 -5.6939
   18SOL    HW2   99   0.103   0.664   0.464  1.1944 -2.9915  0.2425
   19SOL     OW  100   1.096   0.340   0.476  0.5543  0.8170 -0.1897
   19SOL    HW1  101   1.167   0.388   0.518  0.6422 -1.6583 -0.6493
   19SOL    HW2  102   1.027   0.399   0.504 -1.6376 -2.2029 -3.1884
   20SOL     OW  103   1.528   0.456   2.488 -0.0099  0.8582  0.4057
   20SOL    HW1  104   1.496   0.543   2.467  2.8437 -0.7343  3.2542
   20SOL    HW2  105   1.523   0.414   2.394  0.8089 -1.3827 -0.6436
   21SOL     OW  106   1.295   1.258   0.657  0.4886 -0.1966  0.4477
   21SOL    HW1  107   1.272   1.178   0.600  0.0406  2.4564 -1.9835
   21SOL    HW2  108   1.367   1.298   0.599 -2.6501 -1.9905 -1.7330
   22SOL     OW  109   0.204   1.725   0.553  1.0139 -0.6229  0.1174
   22SOL    HW1  110   0.195   1.784   0.479 -2.3842 -3.3873 -3.3633
   22SOL    HW2  111   0.301   1.698   0.553  3.0104  0.7724  4.1416
   23SOL     OW  112   2.679   0.981   2.509 -0.4543 -0.9140  0.1344
   23SOL    HW1  113   2.709   0.963   2.601  0.3349 -2.9031 -2.5768
   23SOL    HW2  114   2.758   0.963   2.455 -1.4395 -0.0007  2.0670
   24SOL     OW  115   2.139   0.461   0.390  0.5528 -0.1871  0.4074
   24SOL    HW1  116   2.218   0.419   0.359  0.9893 -3.5964  3.5434
   24SOL    HW2  117   2.129   0.421   0.469  0.3541  2.4756 -2.3535
   25SOL     OW  118   1.628   0.527   1.486  0.5556  0.0528 -0.1132
   25SOL    HW1  119   1.606   0.450   1.433 -2.2827  5.1233  1.2401
   25SOL    HW2  120   1.545   0.559   1.508  2.0058 -2.5289 -1.4825
   26SOL     OW  121   1.080   0.892   1.911 -0.3019 -0.3560 -0.1382
   26SOL    HW1  122   1.058   0.892   2.009  1.7482 -2.0023  0.9925
   26SOL    HW2  123   0.991   0.883   1.876  0.6329 -2.4134 -1.6478
   27SOL     OW  124   1.750   2.179   0.639 -0.7275 -0.0448  0.1474
   27SOL    HW1  125   1.796   2.090   0.641  1.5034 -0.8733  1.2727
   27SOL    HW2  126   1.698   2.186   0.554 -1.6230  0.4796 -2.7326
   28SOL     OW  127   0.198   2.959   1.285 -0.1651  0.0755  0.5386
   28SOL    HW1  128   0.239   2.908   1.351  1.0215  4.2857  0.3050
   28SOL    HW2  129   0.228   2.929   1.196  3.9375 -0.8329  1.2135
   29SOL     OW  130   2.495   2.089   0.804  0.0368 -0.5760 -0.2843
   29SOL    HW1  131   2.406   2.100   0.781 -1.3897 -0.5901  3.8373
   29SOL    HW2  132   2.511   2.181   0.832 -0.1709 -0.8722  3.1276
   30SOL     OW  133   2.043   2.313   0.030  0.2642  0.7944  0.8865
   30SOL    HW1  134   2.015   2.328  -0.059 -1.0447 -2.3882 -0.2153
   30SOL    HW2  135   1.951   2.342   0.067 -1.5171  2.5064  1.2338
   31SOL     OW  136   0.270   2.680   2.503 -0.4789  0.5523  0.2659
   31SOL    HW1  137   0.252   2.586   2.514  0.1333  1.8516  1.1001
   31SOL    HW2  138   0.367   2.685   2.517  1.1860 -1.3504 -0.3567
   32SOL     OW  139   1.282   2.881   1.883  0.2283  0.6130  0.1543
   32SOL    HW1  140   1.359   2.854   1.935 -1.2362 -0.3206 -0.9492
   32SOL    HW2  141   1.206   2.834   1.922  0.7332 -2.3693 -1.2992
   33SOL     OW  142   2.628   0.468   1.467 -0.0510 -0.8021  0.1205
   33SOL    HW1  143   2.613   0.422   1.382  0.2868  0.0084  1.6692
   33SOL    HW2  144   2.686   0.399   1.519 -0.9635 -1.5095  1.7854
   34SOL     OW  145   1.513   0.084   0.438  0.6429  0.3323 -0.4277
   34SOL    HW1  146   1.450   0.020   0.415 -1.7418 -0.3057 -2.4268
   34SOL    HW2  147   1.524   0.127   0.354 -0.8894 -0.9252  1.2310
   35SOL     OW  148   0.393   1.070   2.950 -0.2531 -0.3313  0.3039
   35SOL    HW1  149   0.433   1.013   2.881  0.5633  2.2829  0.5109
   35SOL    HW2  150   0.309   1.109   2.912  0.0732 -2.6060  1.8654
   36SOL     OW  151   1.490   0.276   1.198  0.4068 -0.3956 -0.2337
   36SOL    HW1  152   1.511   0.294   1.105  0.0920 -1.6645 -2.8432
   36SOL    HW2  153   1.388   0.262   1.198  0.2059  2.2530 -3.6736
   37SOL     OW  154   2.808   2.569   2.423  0.7248 -0.1970 -0.2401
   37SOL    HW1  155   2.800   2.477   2.452  2.2326  1.4734 -0.4411
   37SOL    HW2  156   2.730   2.606   2.464 -0.5865  0.5846 -0.5987
   38SOL     OW  157   0.830   2.154   0.036 -0.4109  0.0893 -0.2930
   38SOL    HW1  158   0.838   2.058   0.023  1.1040  0.7844 -1.3733
   38SOL    HW2  159   0.757   2.172  -0.024  0.3513 -0.1443 -1.7599
   39SOL     OW  160   1.690   2.156   1.936 -0.7285 -0.4183 -0.3437
   39SOL    HW1  161   1.664   2.250   1.945 -1.6490  1.7718  2.3771
   39SOL    HW2  162   1.681   2.140   1.842  2.1911  0.4955  0.3130
   40SOL     OW  163   2.864   1.117   1.442 -0.4414 -0.4430 -0.0585
   40SOL    HW1  164   2.768   1.112   1.433 -1.6040  0.6658 -2.5426
   40SOL    HW2  165   2.890   1.110   1.350  1.4707  0.4964 -1.5608
   41SOL     OW  166   2.398   2.337   0.142 -0.2863  0.2640  0.5593
   41SOL    HW1  167   2.418   2.250   0.107  1.8141  0.9404  2.5689
   41SOL    HW2  168   2.325   2.304   0.193  1.0741  0.6488  0.0102
   42SOL     OW  169   1.441   1.430   2.217  0.7152 -0.1885  0.4500
   42SOL    HW1  170   1.429   1.415   2.314 -4.1858  1.2685  0.1821
   42SOL    HW2  171   1.536   1.435   2.208  0.8834  1.4140  2.3083
   43SOL     OW  172   0.298   2.101   0.438 -0.6590  0.5861 -0.3381
   43SOL    HW1  173   0.299   2.105   0.537 -0.0024 -0.9873  0.8108
   43SOL    HW2  174   0.298   2.197   0.407  1.0607 -1.0224  0.5454
   44SOL     OW  175   2.443   0.540   1.788  0.3808  0.6975 -0.0257
   44SOL    HW1  176   2.520   0.493   1.796 -1.5831  0.8033  0.1459
   44SOL    HW2  177   2.405   0.503   1.705  0.2153  3.5945 -1.0453
   45SOL     OW  178   0.106   1.934   0.359 -0.3005  0.0821 -0.2623
   45SOL    HW1  179   0.171   1.984   0.407 -1.1911  0.4506  0.0419
   45SOL    HW2  180   0.117   1.990   0.281  0.2502 -0.3477  1.5925
   46SOL     OW  181   1.642   1.793   0.609  0.0482  0.1471  0.0889
   46SOL    HW1  182   1.580   1.822   0.535  2.7033  1.1170 -2.2006
   46SOL    HW2  183   1.607   1.706   0.612 -4.0489 -2.1182 -1.0651
   47SOL     OW  184   2.927   0.299   1.037  0.6229  0.2928  0.2609
   47SOL    HW1  185   3.012   0.330   1.012 -1.1450  0.3317 -0.3780
   47SOL    HW2  186   2.952   0.206   1.057  2.5945  1.1454  0.5152
   48SOL     OW  187   0.533   2.772   0.547 -0.2406 -0.2580 -0.5887
   48SOL    HW1  188   0.544   2.675   0.565  1.0435  1.8009 -2.2019
   48SOL    HW2  189   0.529   2.802   0.640 -1.0312  1.4608 -0.1886
   49SOL     OW  190   2.973   1.589   0.338 -0.1246 -0.0336  0.0630
   49SOL    HW1  191   2.999   1.647   0.262  3.6845 -1.9189 -0.2269
   49SOL    HW2  192   3.049   1.549   0.367 -1.1927  2.2939  2.2240
   50SOL     OW  193   0.459   2.304   0.728 -0.0674 -0.1107 -0.4855
   50SOL    HW1  194   0.498   2.247   0.795  0.4968 -0.7105  0.2451
   50SOL    HW2  195   0.385   2.253   0.707  2.8009  2.1576  2.1536
   51SOL     OW  196   1.027   1.988   1.879 -0.1423  0.1099 -0.0366
   51SOL    HW1  197   1.092   2.040   1.827 -1.1880  1.6300  0.9387
   51SOL    HW2  198   0.968   1.961   1.808 -2.0705 -0.7213  0.7269
   52SOL     OW  199   0.597   1.918   1.912  0.3248  0.0964 -0.9781
   52SOL    HW1  200   0.522   1.922   1.967 -0.3872  2.7252 -0.2586
   52SOL    HW2  201   0.643   1.840   1.951  0.6415  1.7859  0.8092
   53SOL     OW  202   1.776   2.605   2.814  0.7428  0.0883  0.1400
   53SOL    HW1  203   1.819   2.608   2.901 -1.2526  0.4917 -2.6058
   53SOL    HW2  204   1.784   2.505   2.801 -1.5546 -1.4478  0.6288
   54SOL     OW  205   2.498   0.936   1.375 -0.2821 -0.1593 -0.5919
   54SOL    HW1  206   2.437   0.891   1.317  2.2734 -4.8608  4.0150
   54SOL    HW2  207   2.476   1.031   1.348  0.7056  0.1948  0.1712
   55SOL     OW  208   2.591   1.662   1.551 -0.5865 -0.1984 -0.0036
   55SOL    HW1  209   2.534   1.691   1.619  0.3704  0.3075 -0.0871
   55SOL    HW2  210   2.533   1.628   1.481  2.5513 -3.7648  0.2303
   56SOL     OW  211   1.272   2.227   1.306 -0.1435 -0.2929 -0.1075
   56SOL    HW1  212   1.349   2.228   1.370  0.9318 -0.1244  2.7398
   56SOL    HW2  213   1.193   2.260   1.351 -2.4682  1.7373  1.4101
   57SOL     OW  214   1.911   2.037   0.236  0.5337 -0.2281 -0.0726
   57SOL    HW1  215   1.875   2.115   0.285  2.0337 -2.9185  1.0204
   57SOL    HW2  216   1.846   1.976   0.265 -1.0548 -0.1111 -0.1954
   58SOL     OW  217   0.635   1.036   1.632  0.3845 -0.4716 -0.2638
   58SOL    HW1  218   0.587   1.031   1.723 -0.4390 -1.3079  2.0703
   58SOL    HW2  219   0.721   1.040   1.678  0.3499  1.0713  2.6618
   59SOL     OW  220   2.300   0.750   1.209  0.6311 -0.2805 -0.0339
   59SOL    HW1  221   2.347   0.699   1.140 -3.3680 -0.1066  1.8945
   59SOL    HW2  222   2.233   0.782   1.142  2.3618  0.9848 -2.4330
   60SOL     OW  223   1.349   1.389   2.468 -0.9329  0.0207  0.3685
   60SOL    HW1  224   1.265   1.342   2.482  3.1909 -1.8680 -0.3283
   60SOL    HW2  225   1.350   1.469   2.528 -0.0341  5.5345 -1.3585
   61SOL     OW  226   1.521   2.458   2.992  0.3112  0.1756  0.8976
   61SOL    HW1  227   1.499   2.372   2.965  0.3973 -2.0925  0.4264
   61SOL    HW2  228   1.429   2.498   3.003  1.7733 -2.6956  0.3849
   62SOL     OW  229   2.699   2.829   0.960  0.0182 -0.1490 -0.0433
   62SOL    HW1  230   2.704   2.908   1.018  0.4128  2.2472 -2.4092
   62SOL    HW2  231   2.622   2.769   0.984 -0.4139 -3.6236 -0.0434
   63SOL     OW  232   1.906   1.060   0.236 -0.4383  0.6621 -0.4621
   63SOL    HW1  233   1.981   1.077   0.170 -0.3538  0.4594  3.0515
   63SOL    HW2  234   1.951   1.045   0.320  0.3904 -0.5982  0.6403
   64SOL     OW  235   2.860   2.286   0.680  0.1220  0.4624  0.6036
   64SOL    HW1  236   2.898   2.207   0.720  1.4291 -3.3286 -2.1056
   64SOL    HW2  237   2.903   2.350   0.740 -1.8255 -0.2119 -2.1849
   65SOL     OW  238   0.365   0.925   2.673 -0.1626  0.0064  0.3918
   65SOL    HW1  239   0.282   0.889   2.632 -3.4324 -1.1940 -1.4266
   65SOL    HW2  240   0.409   0.970   2.607  1.5694  1.8218  0.5503
   66SOL     OW  241   1.109   2.003   1.403 -0.6792 -0.6723 -0.4749
   66SOL    HW1  242   1.170   1.930   1.414 -0.0576 -0.2370  2.4308
   66SOL    HW2  243   1.036   1.976   1.457  1.9828  0.6233 -3.1258
   67SOL     OW  244   1.730   0.498   0.214 -0.2038 -0.0999 -0.3227
   67SOL    HW1  245   1.661   0.512   0.153 -0.8849 -1.7244  0.6061
   67SOL    HW2  246   1.750   0.589   0.235  0.5691 -1.9225 -1.3212
   68SOL     OW  247   2.399   2.758   2.831 -0.1278  0.0476  0.5944
   68SOL    HW1  248   2.394   2.816   2.755  0.0170  3.3728  0.7779
   68SOL    HW2  249   2.465   2.696   2.797  0.0964  3.8019 -1.7119
   69SOL     OW  250   1.828   2.925   2.630  0.5170 -0.1695 -0.5394
   69SOL    HW1  251   1.828   2.900   2.538 -1.3222  0.6103 -0.7630
   69SOL    HW2  252   1.919   2.953   2.653 -0.0981 -0.2118  3.0540
   70SOL     OW  253   1.792   2.985   0.893  0.4593  0.1314 -0.0067
   70SOL    HW1  254   1.716   2.995   0.962  0.6847 -2.2542  1.2849
   70SOL    HW2  255   1.765   3.043   0.815  0.0938  2.3844  1.0461
   71SOL     OW  256   1.535   2.628   0.270  0.3658 -0.3892 -0.5417
   71SOL    HW1  257   1.567   2.686   0.338 -4.2545  0.6643 -0.4918
   71SOL    HW2  258   1.553   2.673   0.185 -0.3070  0.0131 -1.2577
   72SOL     OW  259   0.047   2.704   2.825  0.3285  0.2441  0.0733
   72SOL    HW1  260  -0.034   2.647   2.813 -1.2015 -0.9832 -0.1697
   72SOL    HW2  261   0.055   2.699   2.922 -3.2863  2.4239  1.0438
   73SOL     OW  262   1.351   2.333   2.125 -0.0796  0.1324 -0.7052
   73SOL    HW1  263   1.301   2.257   2.161 -2.6941  0.0612 -1.6090
   73SOL    HW2  264   1.288   2.401   2.106 -0.9200  0.5941 -1.9762
   74SOL     OW  265   2.517   2.393   2.609  0.0711  0.3516  0.9222
   74SOL    HW1  266   2.541   2.320   2.544  1.6715 -1.1515 -1.5741
   74SOL    HW2  267   2.430   2.363   2.637 -0.3666 -2.2783 -1.2860
   75SOL     OW  268   2.994   1.495   1.489  0.3449  0.0358  0.6637
   75SOL    HW1  269   2.927   1.552   1.447 -0.0346  0.8217  2.7012
   75SOL    HW2  270   3.027   1.461   1.403 -1.1456 -1.5848 -1.6273
   76SOL     OW  271   0.352   2.114   2.050 -0.9895  0.0336  0.4085
   76SOL    HW1  272   0.308   2.197   2.023  2.0297  0.1129 -0.9532
   76SOL    HW2  273   0.410   2.139   2.124 -0.9212  0.1149  2.2305
   77SOL     OW  274   1.895   1.882   2.277  0.0340  0.5558  0.4784
   77SOL    HW1  275   1.921   1.942   2.209 -1.3054 -1.7708 -0.4878
   77SOL    HW2  276   1.933   1.916   2.358  0.7281 -1.8547  0.6938
   78SOL     OW  277   0.059   1.727   1.102 -0.0987 -0.4538 -0.2188
   78SOL    HW1  278   0.095   1.740   1.191 -0.1436 -1.7485  1.1600
   78SOL    HW2  279  -0.035   1.755   1.118  1.3246 -0.2026  3.7052
   79SOL     OW  280   0.727   0.595   2.192  1.1484 -0.5325  0.1737
   79SOL    HW1  281   0.636   0.582   2.227 -1.3298  2.0020  2.4951
   79SOL    HW2  282   0.745   0.509   2.140  0.5006  2.0398 -1.8251
   80SOL     OW  283   0.826   2.810   2.089 -0.4756  0.0429  0.4242
   80SOL    HW1  284   0.786   2.858   2.161  0.8115 -0.4297 -0.8400
   80SOL    HW2  285   0.805   2.863   2.007 -0.1441 -0.8217 -0.3327
   81SOL     OW  286   2.201   1.676   1.197 -0.5280 -0.1860 -0.4209
   81SOL    HW1  287   2.159   1.689   1.107 -1.1039 -0.8530 -1.8043
   81SOL    HW2  288   2.123   1.667   1.252 -3.7548  2.6969  1.5573
   82SOL     OW  289   0.660   2.812   2.736 -0.1021  0.2854  0.3270
   82SOL    HW1  290   0.729   2.861   2.788  0.6182 -0.2698 -0.1250
   82SOL    HW2  291   0.639   2.748   2.803 -2.8696  4.1492  1.7774
   83SOL     OW  292   0.322   2.661   0.762  0.5380  0.6831  0.2043
   83SOL    HW1  293   0.257   2.586   0.757  0.9641  1.3240 -2.2488
   83SOL    HW2  294   0.344   2.709   0.674 -3.4862  2.8074 -2.5725
   84SOL     OW  295   1.313   2.621   1.124  0.3493 -0.6691 -1.3590
   84SOL    HW1  296   1.225   2.589   1.134  0.3572  2.5041 -0.0236
   84SOL    HW2  297   1.325   2.574   1.038 -2.4502  0.6889  1.6322
   85SOL     OW  298   1.655   2.729   1.014 -0.2173  0.4988  0.0305
   85SOL    HW1  299   1.672   2.641   1.061  1.8898  1.8741  0.4365
   85SOL    HW2  300   1.734   2.781   1.035 -2.0584 -2.6576  3.8641
   86SOL     OW  301   2.538   0.799   0.349 -0.8595  0.6890 -0.4910
   86SOL    HW1  302   2.544   0.707   0.322  0.3055  2.0654  0.2577
   86SOL    HW2  303   2.612   0.834   0.294 -0.2272  0.4264 -1.5663
   87SOL     OW  304   0.731   1.733   2.031 -0.0233 -0.0502 -0.2402
   87SOL    HW1  305   0.825   1.704   2.044  0.6753 -0.1243  1.4801
   87SOL    HW2  306   0.688   1.687   2.105  0.7356  0.6514  2.0995
   88SOL     OW  307   0.624   2.987   0.192 -0.6927 -0.1002 -0.8795
   88SOL    HW1  308   0.639   3.074   0.241 -0.4574  2.1612  1.0574
   88SOL    HW2  309   0.640   2.911   0.254  2.5225 -2.6764 -1.1449
   89SOL     OW  310   2.586   2.659   2.624  0.3999  0.0020  0.3026
   89SOL    HW1  311   2.575   2.693   2.538 -0.7527 -1.7164 -1.8246
   89SOL    HW2  312   2.553   2.564   2.611 -0.4934 -0.7413 -0.4256
   90SOL     OW  313   2.637   0.028   2.044 -0.3801  0.1513  0.1585
   90SOL    HW1  314   2.692   0.082   2.110  0.2167  1.1861 -3.9511
   90SOL    HW2  315   2.672  -0.057   2.068 -0.8047  3.3700  0.7616
   91SOL     OW  316   1.167   2.153   1.701  0.1774 -0.0318 -0.0407
   91SOL    HW1  317   1.189   2.248   1.694  2.0747  2.5598 -1.8580
   91SOL    HW2  318   1.081   2.155   1.659  0.1275 -0.6363  0.4110
   92SOL     OW  319   2.791   0.169   2.523 -0.1473 -0.6564  0.0889
   92SOL    HW1  320   2.753   0.247   2.573 -0.6279  2.4695  1.4298
   92SOL    HW2  321   2.802   0.107   2.591 -1.3784  2.0935  2.1324
   93SOL     OW  322   1.537   0.089   2.394  0.5192  0.2066  0.6510
   93SOL    HW1  323   1.628   0.058   2.367  4.6097 -1.7182 -2.6244
   93SOL    HW2  324   1.521   0.024   2.461 -0.8530  1.2838  0.4809
   94SOL     OW  325   2.464   0.404   2.877  0.7018  0.4496  0.1334
   94SOL    HW1  326   2.440   0.374   2.784 -1.2175  0.1511  1.0324
   94SOL    HW2  327   2.513   0.337   2.921 -2.6937  1.6468  0.9973
   95SOL     OW  328   1.205   1.636   2.524  0.8939 -0.3347 -0.5417
   95SOL    HW1  329   1.184   1.703   2.446 -0.4866  2.2320  1.2992
   95SOL    HW2  330   1.116   1.619   2.558 -0.4386  0.9380 -0.2040
   96SOL     OW  331   1.590   1.499   0.844 -0.8834  0.2295  0.1215
   96SOL    HW1  332   1.565   1.402   0.847 -0.3948  4.5226  1.2814
   96SOL    HW2  333   1.574   1.518   0.751  2.3300 -1.3625  1.8778
   97SOL     OW  334   2.805   1.525   0.534 -0.3758  0.4304 -0.6823
   97SOL    HW1  335   2.865   1.568   0.601 -1.6200 -1.0654  0.8760
   97SOL    HW2  336   2.868   1.515   0.453 -1.7485 -2.7906 -0.3327
   98SOL     OW  337   1.978   2.805   1.487 -0.5076  0.4863  0.3893
   98SOL    HW1  338   1.907   2.838   1.543 -1.1537 -0.6411 -0.5935
   98SOL    HW2  339   1.929   2.798   1.403  1.4942  4.1096  0.1917
   99SOL     OW  340   2.520   0.659   0.688 -0.4593 -0.1654 -0.1621
   99SOL    HW1  341   2.519   0.564   0.702 -1.3695 -0.2103 -2.5860
   99SOL    HW2  342   2.605   0.663   0.639  0.2735  2.3480  1.8386
  100SOL     OW  343   1.448   2.885   0.824  0.1805 -0.0202  0.3121
  100SOL    HW1  344   1.534   2.858   0.860 -0.5605 -1.7234  0.6993
  100SOL    HW2  345   1.463   2.962   0.769  0.3330 -0.3369  1.1328
  101SOL     OW  346   1.867   1.112   2.321 -0.4105  0.4083  0.0091
  101SOL    HW1  347   1.934   1.131   2.255 -0.4991 -1.7712  4.1275
  101SOL    HW2  348   1.818   1.187   2.335  2.0987 -0.1739  0.2486
  102SOL     OW  349   1.055   0.466   1.507  0.4862 -0.7317  0.1150
  102SOL    HW1  350   0.975   0.521   1.476 -1.2599  2.3311 -3.7787
  102SOL    HW2  351   1.043   0.474   1.603  0.8679 -0.9293  1.4854
  103SOL     OW  352   2.298   2.443   1.176  0.0523  0.4135  0.1303
  103SOL    HW1  353   2.256   2.531   1.195 -2.7676  0.0757  0.9783
  103SOL    HW2  354   2.283   2.428   1.082  2.2560  0.0073 -2.4583
  104SOL     OW  355   1.223   0.596   1.225 -0.2232  0.6236 -0.2485
  104SOL    HW1  356   1.246   0.690   1.194 -1.3325  0.2348  2.9286
  104SOL    HW2  357   1.126   0.601   1.242  2.3426 -1.6843 -1.9361
  105SOL     OW  358   1.796   0.003   0.288 -0.2435  0.5140 -0.5137
  105SOL    HW1  359   1.756  -0.074   0.338 -1.6971 -0.9861 -0.0874
  105SOL    HW2  360   1.817   0.065   0.362  1.4060  0.9224  0.4539
  106SOL     OW  361   2.942   2.307   2.846  0.0647  0.2295  0.1210
  106SOL    HW1  362   2.959   2.217   2.814 -0.4916  1.2459  0.4807
  106SOL    HW2  363   2.852   2.334   2.826  4.2630  0.8684  2.7526
  107SOL     OW  364   0.272   1.359   0.027  0.0449 -0.4102 -0.5159
  107SOL    HW1  365   0.245   1.263   0.008  0.8770  0.4240 -0.0280
  107SOL    HW2  366   0.365   1.344   0.065 -0.9895  0.4662  2.7157
  108SOL     OW  367   2.023   1.072   0.473  0.1603 -0.6696 -0.2029
  108SOL    HW1  368   2.100   1.103   0.413 -0.0402 -0.1176  1.1040
  108SOL    HW2  369   2.053   1.110   0.563 -0.3400 -0.2613  2.5905
  109SOL     OW  370   0.672   0.689   1.332 -0.0032 -0.5716  0.0490
  109SOL    HW1  371   0.573   0.690   1.301 -2.3202  0.3145 -0.2762
  109SOL    HW2  372   0.671   0.679   1.422 -2.2580 -0.3583  4.7792
  110SOL     OW  373   0.052   2.445   1.605  0.3281  0.4762 -0.4459
  110SOL    HW1  374   0.019   2.473   1.516  1.7821  3.2401 -1.0932
  110SOL    HW2  375  -0.027   2.432   1.652 -0.8287  1.1096 -2.5936
  111SOL     OW  376   2.461   0.200   0.468 -0.3017 -0.1003  0.3546
  111SOL    HW1  377   2.526   0.165   0.404  0.7614 -0.1000 -0.4998
  111SOL    HW2  378   2.434   0.284   0.426 -2.6350  1.8156  0.1104
  112SOL     OW  379   0.044   2.728   0.110 -0.3276  0.0783  0.0227
  112SOL    HW1  380  -0.025   2.781   0.153 -1.1178 -0.4886 -0.4881
  112SOL    HW2  381   0.001   2.645   0.084  0.2670  0.4762 -2.2174
  113SOL     OW  382   0.195   1.127   0.286 -0.2926  0.1053 -0.1013
  113SOL    HW1  383   0.161   1.071   0.215 -1.6454 -0.6046 -0.7263
  113SOL    HW2  384   0.279   1.095   0.319 -1.3387  1.6115  1.3754
  114SOL     OW  385   0.505   0.584   2.347  0.1920 -0.1366  0.1086
  114SOL    HW1  386   0.423   0.626   2.320  0.6883 -0.0604  1.4559
  114SOL    HW2  387   0.484   0.588   2.442 -1.3692 -0.3122 -0.1906
  115SOL     OW  388   0.451   1.383   1.125  0.2778  0.1982 -0.0419
  115SOL    HW1  389   0.483   1.292   1.155  0.6703  1.9776 -0.1163
  115SOL    HW2  390   0.457   1.381   1.026 -0.0471  2.0291  0.1932
  116SOL     OW  391   2.653   0.096   2.874 -0.1647  0.0957 -0.1346
  116SOL    HW1  392   2.621   0.022   2.926  1.0800 -1.1528  0.9840
  116SOL    HW2  393   2.727   0.060   2.817  1.1965  2.1291  0.7149
  117SOL     OW  394   1.905   2.041   2.059 -0.4320 -0.6111 -0.0113
  117SOL    HW1  395   1.808   2.074   2.041 -1.5312 -1.9210  0.3959
  117SOL    HW2  396   1.962   2.125   2.060  1.7923 -0.6773  2.1187
  118SOL     OW  397   2.729   2.736   2.816 -0.0787  0.2953  0.1892
  118SOL    HW1  398   2.686   2.707   2.893  0.6915  1.8284  0.1556
  118SOL    HW2  399   2.680   2.683   2.744  0.0524  0.1665  2.3765
  119SOL     OW  400   1.748   2.496   1.113 -0.0369  0.2330  0.9702
  119SOL    HW1  401   1.823   2.442   1.140  1.5741 -2.1657  2.3664
  119SOL    HW2  402   1.671   2.436   1.097 -1.1579 -1.9702 -0.7277
  120SOL     OW  403   2.778   2.725   1.711  0.0480  0.6022  0.0208
  120SOL    HW1  404   2.714   2.685   1.770 -1.1285 -2.8818 -0.0740
  120SOL    HW2  405   2.769   2.666   1.637 -1.7867  1.8661 -1.1711
  121SOL     OW  406   2.454   1.173   1.060 -0.6353  0.7821 -0.2615
  121SOL    HW1  407   2.413   1.192   1.146  0.7451  1.6237 -2.2084
  121SOL    HW2  408   2.498   1.090   1.089  3.1709  0.4002 -0.0721
  122SOL     OW  409   0.624   1.182   0.635 -0.4832 -0.1689 -0.0692
  122SOL    HW1  410   0.666   1.256   0.587  0.4317 -2.2912  0.6856
  122SOL    HW2  411   0.574   1.225   0.707  1.4944 -2.4526  3.9625
  123SOL     OW  412   2.667   0.395   2.118 -0.4940  0.7132  0.5991
  123SOL    HW1  413   2.599   0.409   2.193  1.7855  0.1809  1.7314
  123SOL    HW2  414   2.625   0.339   2.053  0.2438 -0.0830  0.6963
  124SOL     OW  415   2.541   1.238   0.385 -0.0479  0.5461  0.2073
  124SOL    HW1  416   2.637   1.237   0.390 -2.2906  0.3983  0.6680
  124SOL    HW2  417   2.533   1.215   0.297 -2.1121 -1.8404  1.4829
  125SOL     OW  418   2.633   0.068   0.296 -0.9239  0.0633 -0.2215
  125SOL    HW1  419   2.652  -0.020   0.341 -1.5433 -0.6844 -0.9451
  125SOL    HW2  420   2.700   0.078   0.226 -1.7744  2.1828  2.4014
  126SOL     OW  421   0.987   1.240   1.109  0.2121 -0.5605  0.4010
  126SOL    HW1  422   1.018   1.305   1.173  1.4082  2.1017 -0.2410
  126SOL    HW2  423   0.955   1.171   1.175 -2.9489  1.1478  3.6299
  127SOL     OW  424   2.177   0.137   1.692 -0.6180  0.2387  0.1827
  127SOL    HW1  425   2.080   0.163   1.699 -1.2420  2.7417  0.0917
  127SOL    HW2  426   2.178   0.080   1.608  2.8821 -0.6842 -1.8301
  128SOL     OW  427   1.725   2.437   0.793  0.5423 -0.0169 -0.4419
  128SOL    HW1  428   1.728   2.349   0.752  1.6049 -2.6626  0.0122
  128SOL    HW2  429   1.685   2.488   0.721  1.0951 -0.2469 -2.8883
  129SOL     OW  430   2.211   0.572   0.140  0.4287 -0.2183  0.6399
  129SOL    HW1  431   2.128   0.549   0.084 -1.2010 -2.1028  0.2927
  129SOL    HW2  432   2.199   0.493   0.203  1.6872  0.0117  4.6254
  130SOL     OW  433   0.462   1.789   0.891  0.4818  0.2382 -0.7624
  130SOL    HW1  434   0.528   1.807   0.821 -2.1073  1.5022  0.1059
  130SOL    HW2  435   0.482   1.856   0.960 -0.7438 -2.5093 -1.2152
  131SOL     OW  436   1.078   2.505   1.162  0.4956  0.0697 -0.3692
  131SOL    HW1  437   1.077   2.435   1.092 -1.5250 -2.0849  0.8450
  131SOL    HW2  438   1.045   2.451   1.237  0.6259 -0.2153  0.5353
  132SOL     OW  439   2.789   1.825   1.172 -0.1366 -0.8311  0.4546
  132SOL    HW1  440   2.750   1.743   1.134  0.8839 -0.1427  0.6903
  132SOL    HW2  441   2.759   1.898   1.117 -1.5532  1.3366  0.4862
  133SOL     OW  442   2.111   2.975   0.820  0.2684 -0.4942 -0.5296
  133SOL    HW1  443   2.036   2.950   0.779  0.5965  0.0190 -0.2953
  133SOL    HW2  444   2.124   3.062   0.782  0.0592 -0.7084 -1.9691
  134SOL     OW  445   2.922   1.017   2.051  0.4149 -0.1486  0.2139
  134SOL    HW1  446   2.941   0.986   1.964 -1.2188 -3.8318  0.5073
  134SOL    HW2  447   2.996   1.079   2.069 -0.6291 -0.4408 -2.4252
  135SOL     OW  448   1.116   1.754   2.872 -0.3802  0.5645 -0.4673
  135SOL    HW1  449   1.155   1.695   2.806 -0.2951 -0.4837 -1.0781
  135SOL    HW2  450   1.025   1.729   2.879 -2.2143 -0.7591 -1.8185
  136SOL     OW  451   1.832   1.422   0.208  0.5043 -0.0336  0.2094
  136SOL    HW1  452   1.739   1.401   0.197 -2.9970 -2.1082  0.0534
  136SOL    HW2  453   1.876   1.384   0.133 -1.6571  1.1125 -0.7383
  137SOL     OW  454   1.941   1.352   2.977 -0.5042 -0.7750 -0.6405
  137SOL    HW1  455   2.020   1.412   2.964  0.1354 -0.3571 -0.9759
  137SOL    HW2  456   1.980   1.266   2.954  2.2359  1.0592  1.2994
  138SOL     OW  457   2.139   2.748   0.552 -0.2524 -0.4492  0.2955
  138SOL    HW1  458   2.192   2.827   0.577  3.3400  2.5363  0.8030
  138SOL    HW2  459   2.053   2.765   0.595 -2.2905 -0.0096 -0.3338
  139SOL     OW  460   2.495   1.904   2.737 -0.7130 -0.3337 -0.2802
  139SOL    HW1  461   2.494   1.890   2.834  1.8695 -1.4373  0.1644
  139SOL    HW2  462   2.429   1.843   2.701 -1.4355 -2.2517 -2.0131
  140SOL     OW  463   2.507   1.434   0.581  0.0732 -0.2532  0.3792
  140SOL    HW1  464   2.526   1.368   0.519  2.8447  3.6099 -1.8258
  140SOL    HW2  465   2.596   1.474   0.585 -0.3056  2.0943  1.8660
  141SOL     OW  466   1.835   0.982   1.387 -0.3663 -0.4626  0.0356
  141SOL    HW1  467   1.830   0.912   1.452  1.1546 -2.0060 -0.6550
  141SOL    HW2  468   1.927   1.011   1.397  1.7961  1.9176 -0.8617
  142SOL     OW  469   0.134   0.029   2.419 -0.0669 -0.0597 -0.5004
  142SOL    HW1  470   0.194  -0.016   2.365 -0.6111  0.0224 -1.2601
  142SOL    HW2  471   0.151  -0.026   2.499  0.4919  1.9522 -1.5962
  143SOL     OW  472   1.198   2.427   1.678  0.9380 -0.0639  0.1877
  143SOL    HW1  473   1.266   2.491   1.655 -0.6704  4.0261  0.9880
  143SOL    HW2  474   1.124   2.478   1.723 -2.1538 -2.9296  0.8624
  144SOL     OW  475   0.609   2.386   2.668 -0.0639  0.2413  0.1990
  144SOL    HW1  476   0.680   2.407   2.611 -0.7241  0.2791 -0.5542
  144SOL    HW2  477   0.564   2.472   2.670  1.1044  0.9533 -0.7446
  145SOL     OW  478   1.405   0.716   2.442  0.2744  0.2847 -0.0063
  145SOL    HW1  479   1.420   0.778   2.373 -1.1705 -0.5494  0.9180
  145SOL    HW2  480   1.332   0.667   2.409  0.0020 -1.3920 -1.4017
  146SOL     OW  481   0.834   0.297   1.638  0.2857  0.1923  0.0328
  146SOL    HW1  482   0.878   0.366   1.684 -1.8152  1.5124 -0.9210
  146SOL    HW2  483   0.762   0.342   1.594  1.5473 -1.6756  0.7552
  147SOL     OW  484   2.449   1.355   2.099  0.4051  0.0598  0.0815
  147SOL    HW1  485   2.459   1.446   2.064  0.3572 -2.7308  1.8000
  147SOL    HW2  486   2.535   1.325   2.111  0.5438  0.1358  0.2118
  148SOL     OW  487   2.142   1.516   1.931 -0.0070  0.4046 -0.4292
  148SOL    HW1  488   2.169   1.568   1.859  0.8806  1.2578  3.3235
  148SOL    HW2  489   2.143   1.428   1.889  1.7870  1.7269  0.0670
  149SOL     OW  490   2.072   0.542   1.910 -0.2860 -0.5293 -0.5232
  149SOL    HW1  491   1.985   0.557   1.945  2.0009  3.3287 -1.2337
  149SOL    HW2  492   2.046   0.556   1.819 -0.3214 -0.1821  2.0588
  150SOL     OW  493   2.184   2.192   0.213  0.6871  0.8223 -0.4292
  150SOL    HW1  494   2.122   2.238   0.154 -0.2052  1.4119  1.4059
  150SOL    HW2  495   2.167   2.103   0.186  2.3307 -1.1260 -0.5699
  151SOL     OW  496   1.599   2.226   0.221  0.8768 -0.0199  0.4485
  151SOL    HW1  497   1.611   2.227   0.319  1.2363  0.6121 -2.9931
  151SOL    HW2  498   1.501   2.235   0.198 -1.6843  0.5593 -1.5789
  152SOL     OW  499   1.231   0.601   0.859 -0.7481  0.1980 -0.5971
  152SOL    HW1  500   1.184   0.525   0.876  1.8420  1.3505  1.4386
  152SOL    HW2  501   1.301   0.588   0.931 -0.9581  2.0299  0.8760
  153SOL     OW  502   2.369   0.423   1.536  0.5276  0.2927 -0.0856
  153SOL    HW1  503   2.444   0.433   1.475 -0.3167 -0.3765  4.6067
  153SOL    HW2  504   2.390   0.348   1.598 -1.6162 -0.0931 -0.9226
  154SOL     OW  505   2.441   1.460   1.708 -0.0708  0.2648 -0.6738
  154SOL    HW1  506   2.497   1.514   1.649 -0.7199  1.7943  0.3972
  154SOL    HW2  507   2.466   1.493   1.800 -1.4444  0.4508  2.5497
  155SOL     OW  508   1.597   0.037   0.098 -0.3885  0.1774  0.2290
  155SOL    HW1  509   1.659  -0.000   0.162 -3.7512 -2.0058 -0.5295
  155SOL    HW2  510   1.541  -0.040   0.064 -0.9890  1.2645  3.1147
  156SOL     OW  511   1.934   0.872   2.260  0.5656  0.2450  0.5380
  156SOL    HW1  512   1.903   0.955   2.300  0.5574 -2.6993  0.4133
  156SOL    HW2  513   1.855   0.824   2.230  1.3294  0.2858  1.6360
  157SOL     OW  514   2.225   0.816   2.567 -1.0052  0.0189  0.1245
  157SOL    HW1  515   2.315   0.848   2.573  0.4312 -5.2731  0.1323
  157SOL    HW2  516   2.240   0.734   2.510  1.9725  0.6023  0.9920
  158SOL     OW  517   0.414   1.145   2.120 -0.0426  0.1775 -0.3522
  158SOL    HW1  518   0.439   1.103   2.209  0.5918  1.5775  3.8979
  158SOL    HW2  519   0.326   1.111   2.102  0.0886 -0.2562 -0.8101
  159SOL     OW  520   2.384   0.374   0.293  0.1416  0.4191  0.5223
  159SOL    HW1  521   2.411   0.464   0.269  1.0373 -2.9491 -1.7316
  159SOL    HW2  522   2.443   0.326   0.235 -1.9861  0.8082 -0.5256
  160SOL     OW  523   0.929   0.254   2.579 -0.3206  0.6926 -0.1837
  160SOL    HW1  524   0.968   0.165   2.558 -0.4186  0.5797 -0.6284
  160SOL    HW2  525   0.836   0.245   2.552 -2.2635  1.2333  3.3222
  161SOL     OW  526   1.563   2.356   1.012 -0.8382  0.4069 -0.3085
  161SOL    HW1  527   1.501   2.422   0.972 -2.7788  1.7948 -1.0929
  161SOL    HW2  528   1.636   2.351   0.944 -1.1846 -0.5536  1.3388
  162SOL     OW  529   1.239   0.752   0.201 -0.0396 -0.2441 -0.0420
  162SOL    HW1  530   1.252   0.813   0.125  1.8786 -0.0763  3.1857
  162SOL    HW2  531   1.236   0.662   0.164 -0.8979 -1.3911 -0.5289
  163SOL     OW  532   1.624   1.083   1.490  0.1575 -0.0703  0.8222
  163SOL    HW1  533   1.707   1.043   1.450  0.1475 -1.5191 -0.5872
  163SOL    HW2  534   1.597   1.013   1.557  2.0355  1.0204 -0.4658
  164SOL     OW  535   1.238   0.200   2.111  0.5309  0.1235  0.2579
  164SOL    HW1  536   1.298   0.216   2.184  3.3441 -1.0075  2.1538
  164SOL    HW2  537   1.278   0.121   2.071 -1.9760 -1.3780  0.5341
  165SOL     OW  538   1.917   1.642   1.892  0.1871  0.8692  0.4458
  165SOL    HW1  539   2.016   1.612   1.903  1.7173 -0.6196 -2.4250
  165SOL    HW2  540   1.933   1.739   1.884  1.3500  2.7431 -0.9599
  166SOL     OW  541   1.602   1.259   2.987  0.1508  0.4605  1.0422
  166SOL    HW1  542   1.509   1.256   2.958  0.0883  0.7793 -3.1834
  166SOL    HW2  543   1.642   1.334   2.941  2.7134 -0.8516  0.2526
  167SOL     OW  544   0.158   0.396   0.801 -0.2671  0.5639 -0.0031
  167SOL    HW1  545   0.200   0.451   0.877  2.0113 -0.5827  1.7460
  167SOL    HW2  546   0.235   0.366   0.749 -2.2859 -1.0914  1.3445
  168SOL     OW  547   0.391   0.656   0.360  0.0951  0.4995  0.3350
  168SOL    HW1  548   0.297   0.628   0.395 -2.2832 -0.5260 -0.6142
  168SOL    HW2  549   0.382   0.735   0.306 -2.0216 -2.3280 -1.4929
  169SOL     OW  550   0.399   0.656   2.035 -0.4728  0.1557 -0.0121
  169SOL    HW1  551   0.376   0.559   2.055 -1.9079 -0.4446 -1.3087
  169SOL    HW2  552   0.325   0.704   2.089  1.2015  2.8090  1.2900
  170SOL     OW  553   2.371   1.160   1.324 -0.2264  0.4651 -0.3783
  170SOL    HW1  554   2.305   1.091   1.338  1.2038 -0.8310  1.6491
  170SOL    HW2  555   2.364   1.233   1.399  1.3171  2.3460  2.5838
  171SOL     OW  556   2.825   2.333   1.384  0.6656  0.3974 -0.1248
  171SOL    HW1  557   2.869   2.247   1.397  2.2086 -2.2544  0.9686
  171SOL    HW2  558   2.891   2.368   1.328 -2.4539 -0.8254 -0.0637
  172SOL     OW  559   0.231   1.172   1.761 -0.1712 -0.0661 -0.6572
  172SOL    HW1  560   0.144   1.195   1.730 -1.0517 -0.7501 -0.0617
  172SOL    HW2  561   0.292   1.227   1.710 -0.1326  0.7673  0.2619
  173SOL     OW  562   1.540   1.541   2.706 -0.1657 -0.3749  0.4359
  173SOL    HW1  563   1.604   1.601   2.671  0.5414  1.1705 -0.7371
  173SOL    HW2  564   1.588   1.526   2.789  2.3714  1.2775 -1.1150
  174SOL     OW  565   0.540   2.439   1.815 -0.5691  0.2634 -0.4354
  174SOL    HW1  566   0.527   2.449   1.905  0.3014  0.2586  4.3267
  174SOL    HW2  567   0.458   2.396   1.789  1.5106 -0.5027 -0.9749
  175SOL     OW  568   2.430   2.777   1.357 -0.3012  0.0850 -0.9758
  175SOL    HW1  569   2.526   2.799   1.337 -2.2376 -2.5343  0.8571
  175SOL    HW2  570   2.417   2.682   1.347 -2.4253  0.8356 -0.3254
  176SOL     OW  571   2.982   2.022   2.832  1.1381  0.2946 -0.1965
  176SOL    HW1  572   2.915   1.996   2.762 -1.6577 -1.0063  1.5601
  176SOL    HW2  573   3.056   1.967   2.820 -4.0803  0.4628 -1.7307
  177SOL     OW  574   1.739   2.559   1.846  0.2071  0.3518 -0.4320
  177SOL    HW1  575   1.701   2.497   1.905  5.1959  0.3478  2.7477
  177SOL    HW2  576   1.789   2.505   1.777 -1.6115 -0.3105  0.1756
  178SOL     OW  577   1.306   1.543   2.847 -0.9985 -0.0969  0.5667
  178SOL    HW1  578   1.349   1.466   2.887 -0.2804  0.8141  0.7320
  178SOL    HW2  579   1.354   1.566   2.769  1.0593 -0.4697 -1.1275
  179SOL     OW  580   0.109   1.742   1.397 -0.6857  0.9872 -0.0531
  179SOL    HW1  581   0.061   1.669   1.442 -0.5410 -2.2777  0.0288
  179SOL    HW2  582   0.087   1.819   1.458 -4.2644 -2.9929 -3.3426
  180SOL     OW  583   1.115   2.866   0.611 -0.1425 -0.1370  0.3432
  180SOL    HW1  584   1.074   2.947   0.569  1.6341 -1.7384  0.9713
  180SOL    HW2  585   1.036   2.851   0.657 -1.9636 -2.4153 -1.0519
  181SOL     OW  586   0.079   1.606   1.723  0.5995 -0.9306 -0.1907
  181SOL    HW1  587   0.029   1.571   1.640 -0.1850  1.4279 -1.5196
  181SOL    HW2  588   0.004   1.633   1.780 -1.7713  2.0058  2.3616
  182SOL     OW  589   2.114   0.477   2.588 -0.0007  0.4047  0.5303
  182SOL    HW1  590   2.034   0.507   2.631 -0.4101 -0.2586  0.9798
  182SOL    HW2  591   2.136   0.551   2.537  1.4223 -0.8464  0.3936
  183SOL     OW  592   1.006   0.258   1.115 -0.2833  0.3375 -0.4789
  183SOL    HW1  593   0.905   0.271   1.112  1.5315  0.1305 -1.5764
  183SOL    HW2  594   1.036   0.197   1.049 -0.4703  1.6587  2.3223
  184SOL     OW  595   1.129   2.810   0.091 -0.3140  0.5730 -0.2579
  184SOL    HW1  596   1.135   2.899   0.044  1.9695  0.7618 -3.1336
  184SOL    HW2  597   1.091   2.847   0.173 -0.4173 -1.6573  0.5360
  185SOL     OW  598   1.252   0.651   2.248  0.1591  1.0165  0.1123
  185SOL    HW1  599   1.182   0.715   2.242  0.0299 -0.7159  0.9524
  185SOL    HW2  600   1.193   0.574   2.226 -0.5441  2.9199  1.3288
  186SOL     OW  601   0.624   2.056   1.579 -0.3004  0.6554  0.1846
  186SOL    HW1  602   0.658   1.960   1.593 -0.0560 -0.9156 -1.3253
  186SOL    HW2  603   0.533   2.041   1.619  4.2395 -1.1516 -2.5788
  187SOL     OW  604   2.709   2.731   0.106  0.7666 -0.0429  0.6720
  187SOL    HW1  605   2.643   2.662   0.068 -1.0000  0.4578  3.0910
  187SOL    HW2  606   2.714   2.702   0.197 -0.7873 -2.5749 -2.0557
  188SOL     OW  607   1.127   1.250   2.941  0.0601  0.3871  0.3750
  188SOL    HW1  608   1.158   1.275   2.855  3.2611  0.5714 -0.4315
  188SOL    HW2  609   1.046   1.296   2.938  2.1154  0.1456 -0.7783
  189SOL     OW  610   0.198   2.235   2.626 -0.4635  0.2962 -0.0742
  189SOL    HW1  611   0.137   2.162   2.584  0.9359 -1.1281  1.0735
  189SOL    HW2  612   0.122   2.281   2.669  3.4801  0.7164  1.3704
  190SOL     OW  613   2.260   2.363   2.041 -0.3227 -0.6799  0.6791
  190SOL    HW1  614   2.298   2.408   1.961  0.7307 -1.0037  0.2944
  190SOL    HW2  615   2.164   2.384   2.030  2.1045  2.6460  0.8752
  191SOL     OW  616   1.252   1.806   2.279  0.1381  0.5137  0.4351
  191SOL    HW1  617   1.321   1.730   2.269  0.4700  1.9972 -2.1447
  191SOL    HW2  618   1.283   1.873   2.219  1.5205 -1.2946 -0.2008
  192SOL     OW  619   1.967   0.125   1.335  0.8341 -0.3438 -0.6708
  192SOL    HW1  620   1.977   0.086   1.247 -2.4994  1.5619  0.9905
  192SOL    HW2  621   1.894   0.184   1.324 -2.0039 -1.2018 -0.1779
  193SOL     OW  622   2.175   0.301   1.963  0.0081  0.1948 -0.1207
  193SOL    HW1  623   2.129   0.386   1.930 -0.7306 -1.1412 -0.0035
  193SOL    HW2  624   2.249   0.290   1.900 -1.0655 -0.0553 -2.8758
  194SOL     OW  625   1.798   1.413   0.499 -0.0680  0.1030 -0.6545
  194SOL    HW1  626   1.877   1.375   0.549 -2.0733  3.7291 -4.3218
  194SOL    HW2  627   1.838   1.407   0.408  2.1361  2.4425 -0.8392
  195SOL     OW  628   2.513   2.629   0.999  0.6078 -0.5520 -0.7579
  195SOL    HW1  629   2.443   2.672   0.948 -4.3606  1.2271  1.1904
  195SOL    HW2  630   2.503   2.537   0.965 -0.7236  0.1420 -2.1980
  196SOL     OW  631   0.960   2.404   2.989  0.0684 -0.2111  0.7251
  196SOL    HW1  632   0.881   2.432   3.044 -1.3155  2.8636  3.5648
  196SOL    HW2  633   0.956   2.315   3.009 -0.6039  0.9688 -4.2423
  197SOL     OW  634   2.074   1.069   2.114  0.6107  0.1884 -0.4553
  197SOL    HW1  635   2.065   0.981   2.147 -1.6907 -1.7473 -2.7536
  197SOL    HW2  636   2.138   1.114   2.175 -0.7466  0.1079  1.0447
  198SOL     OW  637   1.367   0.149   2.907  0.5621  1.2286 -0.4546
  198SOL    HW1  638   1.322   0.109   2.978 -2.1377  2.8092  0.5115
  198SOL    HW2  639   1.296   0.158   2.843 -1.1127  2.9719  1.8890
  199SOL     OW  640   2.300   2.412   2.869  0.5573  0.0057  0.6353
  199SOL    HW1  641   2.343   2.333   2.834 -1.9640 -0.2732  2.4616
  199SOL    HW2  642   2.247   2.369   2.940 -0.3731  0.4725  0.5804
  200SOL     OW  643   0.028   1.241   0.476  0.2444  0.5219  0.4824
  200SOL    HW1  644   0.089   1.203   0.406  3.6374 -1.2283 -2.5290
  200SOL    HW2  645   0.085   1.311   0.503  1.1130 -2.0269  0.1020
  201SOL     OW  646   0.895   0.795   1.626 -0.1259 -0.0489  0.2471
  201SOL    HW1  647   0.942   0.878   1.604 -0.6940  0.0704 -0.6272
  201SOL    HW2  648   0.818   0.833   1.678  2.9562  4.0305 -1.0810
  202SOL     OW  649   1.772   2.719   0.740 -0.7569 -0.2832  0.0172
  202SOL    HW1  650   1.823   2.642   0.781 -1.9231  0.1377 -0.2489
  202SOL    HW2  651   1.797   2.797   0.794  3.9736 -1.4085  2.5166
  203SOL     OW  652   1.496   1.862   2.446 -0.9490 -0.3987  0.7198
  203SOL    HW1  653   1.442   1.943   2.450  0.1382  0.1518  2.5511
  203SOL    HW2  654   1.443   1.813   2.376 -2.4332  1.8668  6.3513
  204SOL     OW  655   2.254   2.928   2.609 -0.4849 -0.1666  0.2272
  204SOL    HW1  656   2.170   2.938   2.642 -0.7434  0.0211  3.1286
  204SOL    HW2  657   2.245   2.841   2.555 -1.9865 -1.7774  2.5267
  205SOL     OW  658   1.884   2.318   1.469  0.4414  0.4709  0.2477
  205SOL    HW1  659   1.957   2.332   1.405  1.5881 -0.8202  1.1140
  205SOL    HW2  660   1.818   2.382   1.445 -4.3952 -0.4575  1.7675
  206SOL     OW  661   2.487   0.324   1.259 -0.1975 -0.6112 -1.0097
  206SOL    HW1  662   2.420   0.380   1.206  1.9540 -0.3339 -1.5595
  206SOL    HW2  663   2.558   0.304   1.193  1.4365 -1.4397 -1.9870
  207SOL     OW  664   0.855   2.208   2.520 -0.0540  0.6981 -0.8110
  207SOL    HW1  665   0.843   2.167   2.438  0.6267 -3.3874  2.7443
  207SOL    HW2  666   0.810   2.131   2.560  0.2721  0.3396 -0.4296
  208SOL     OW  667   2.294   0.670   1.980  0.5120 -0.0841  0.0777
  208SOL    HW1  668   2.344   0.618   1.910  1.3799 -0.5308 -3.6911
  208SOL    HW2  669   2.223   0.607   1.994  1.1546 -1.3534  0.9637
  209SOL     OW  670   2.841   2.997   1.757  0.1748 -0.7819 -0.1342
  209SOL    HW1  671   2.877   2.961   1.843 -3.7215 -2.8055 -0.3752
  209SOL    HW2  672   2.836   2.911   1.714 -0.5840 -0.9762  2.6725
  210SOL     OW  673   1.325   1.911   0.015  0.4664 -0.0974 -0.0198
  210SOL    HW1  674   1.393   1.850   0.006 -2.0545  2.9737 -1.6920
  210SOL    HW2  675   1.248   1.864  -0.027  3.9774 -0.0923 -0.7640
  211SOL     OW  676   0.302   2.372   1.666  0.4660  0.6562  0.5358
  211SOL    HW1  677   0.214   2.411   1.634 -2.1720 -1.0261  4.4030
  211SOL    HW2  678   0.321   2.312   1.594  1.1479 -2.3245 -1.9545
  212SOL     OW  679   0.412   1.022   0.476  0.7204 -0.2756 -0.3473
  212SOL    HW1  680   0.486   1.058   0.534 -0.3055  1.3683  0.6502
  212SOL    HW2  681   0.342   1.016   0.538  1.0494 -2.7564  4.1092
  213SOL     OW  682   2.103   0.769   1.038  0.4356 -0.1446  0.3736
  213SOL    HW1  683   2.096   0.722   0.954  1.8404 -2.0574  0.0742
  213SOL    HW2  684   2.008   0.766   1.071  0.8516  1.7012  2.9765
  214SOL     OW  685   1.603   1.100   0.752 -0.8858 -0.0321 -0.3923
  214SOL    HW1  686   1.670   1.153   0.787  0.3905  0.2589  1.3349
  214SOL    HW2  687   1.628   1.105   0.657  1.4847  1.4470  0.3869
  215SOL     OW  688   0.877   1.857   0.090 -0.0006 -0.0519  0.0940
  215SOL    HW1  689   0.843   1.798   0.157  1.8453  0.8421  0.8992
  215SOL    HW2  690   0.968   1.891   0.121 -1.2010  1.7982 -3.4982
  216SOL     OW  691   0.777   1.087   2.144 -0.2088  0.3175 -0.5130
  216SOL    HW1  692   0.759   1.181   2.148  1.8646 -1.1331 -1.4108
  216SOL    HW2  693   0.712   1.057   2.209 -0.6511 -0.8778 -3.2777
  217SOL     OW  694   2.110   0.942   0.080 -0.8196 -0.4536 -1.1181
  217SOL    HW1  695   2.049   0.870   0.056 -1.0372 -0.5291  0.4949
  217SOL    HW2  696   2.193   0.892   0.068  1.0361 -1.7944  0.8498
  218SOL     OW  697   0.656   2.185   0.556  0.2538 -0.3880 -0.3602
  218SOL    HW1  698   0.703   2.267   0.555 -0.4871  0.8516 -4.0893
  218SOL    HW2  699   0.579   2.215   0.611  0.0444 -1.9225 -1.2983
  219SOL     OW  700   2.077   0.726   0.428  0.1632  0.3209  0.1749
  219SOL    HW1  701   2.139   0.761   0.368 -1.8724  1.5972 -3.4336
  219SOL    HW2  702   2.084   0.630   0.422 -1.1783 -0.8421 -3.0897
  220SOL     OW  703   2.471   0.787   2.150 -0.6510 -0.2607 -0.4283
  220SOL    HW1  704   2.564   0.800   2.100  2.4729 -1.6790  0.0025
  220SOL    HW2  705   2.399   0.761   2.084  1.3013  0.2639 -0.6689
  221SOL     OW  706   2.513   2.372   0.460 -0.4659 -0.9923 -0.3465
  221SOL    HW1  707   2.457   2.296   0.441 -1.1909  0.4845  0.2624
  221SOL    HW2  708   2.450   2.439   0.484  3.3728  0.5875  0.2843
  222SOL     OW  709   1.553   0.014   1.044 -0.7365 -0.6760 -0.5820
  222SOL    HW1  710   1.520   0.075   1.101 -4.4539  0.2706 -0.2297
  222SOL    HW2  711   1.472  -0.019   1.013 -1.2778  1.6103 -2.8505
  223SOL     OW  712   0.339   0.346   0.601 -0.2565  0.3861  0.4973
  223SOL    HW1  713   0.273   0.413   0.568 -1.9664  0.4138  0.4474
  223SOL    HW2  714   0.339   0.275   0.539 -1.3345  0.3630  0.3747
  224SOL     OW  715   1.546   1.651   1.332  0.4722 -0.7232 -0.1139
  224SOL    HW1  716   1.585   1.674   1.423 -0.8427 -0.0752 -0.9360
  224SOL    HW2  717   1.535   1.554   1.347  2.0676  2.0993  0.0179
  225SOL     OW  718   1.178   0.150   2.731  0.3002 -0.3758 -0.1058
  225SOL    HW1  719   1.182   0.055   2.715  2.6877 -1.0242 -3.4574
  225SOL    HW2  720   1.095   0.153   2.783 -3.1955 -2.2821 -0.2302
  226SOL     OW  721   0.778   2.569   1.354  0.6163 -0.3530  0.3031
  226SOL    HW1  722   0.728   2.518   1.420  1.1986  3.2165 -0.1313
  226SOL    HW2  723   0.755   2.530   1.269  1.6613 -3.7174  2.2216
  227SOL     OW  724   2.979   1.328   2.626 -0.5681 -0.5195  0.3001
  227SOL    HW1  725   2.979   1.283   2.537 -0.3978 -1.0770  0.4227
  227SOL    HW2  726   2.922   1.273   2.683 -1.8225 -1.1742  3.2110
  228SOL     OW  727   2.244   1.732   2.864  0.1958 -0.8208  1.0399
  228SOL    HW1  728   2.283   1.759   2.777  0.0107  1.2589  0.1254
  228SOL    HW2  729   2.180   1.662   2.840 -1.1972 -2.2271 -1.6568
  229SOL     OW  730   1.473   2.735   2.307  0.5131  0.4509 -0.1857
  229SOL    HW1  731   1.497   2.641   2.277  3.0284 -2.3219 -1.3137
  229SOL    HW2  732   1.485   2.751   2.406  0.9066  0.3342  0.5385
  230SOL     OW  733   0.471   1.991   1.118 -0.3145  0.0287  0.2374
  230SOL    HW1  734   0.435   1.948   1.196 -3.7958 -0.9240  1.0254
  230SOL    HW2  735   0.564   2.003   1.143 -3.6524 -0.1169 -1.4846
  231SOL     OW  736   2.347   2.121   1.562  0.2462  0.8860 -0.8368
  231SOL    HW1  737   2.370   2.069   1.481 -1.3630 -2.2708  0.9104
  231SOL    HW2  738   2.350   2.206   1.509 -1.6647  1.4790  1.7813
  232SOL     OW  739   0.329   2.358   2.393  0.3134 -0.8822 -0.7112
  232SOL    HW1  740   0.399   2.293   2.359  1.1316  0.6460 -2.6526
  232SOL    HW2  741   0.298   2.322   2.472  0.3807 -1.2681 -2.2307
  233SOL     OW  742   2.675   0.358   1.050  0.3375 -0.1083  0.0392
  233SOL    HW1  743   2.766   0.333   1.061  1.3497  0.8420  0.9325
  233SOL    HW2  744   2.642   0.293   0.989 -1.3184 -2.7963 -1.4641
  234SOL     OW  745   0.421   0.578   2.602 -0.2518  0.5492  0.3021
  234SOL    HW1  746   0.340   0.628   2.619  0.9214  1.2898 -0.2484
  234SOL    HW2  747   0.411   0.513   2.670 -1.9318 -1.5570 -0.4206
  235SOL     OW  748   0.616   1.598   2.689 -0.3756  0.7701  0.0916
  235SOL    HW1  749   0.600   1.560   2.776  1.9701  3.2820  1.1756
  235SOL    HW2  750   0.562   1.538   2.636 -0.6713  0.0944 -1.2641
  236SOL     OW  751   0.610   2.183   2.862  0.0349 -0.6235 -0.5879
  236SOL    HW1  752   0.542   2.133   2.815 -0.2965 -0.2045  0.1933
  236SOL    HW2  753   0.613   2.263   2.801 -1.4562 -0.9930 -2.4247
  237SOL     OW  754   2.948   0.495   1.237  0.0471  1.3962  0.0033
  237SOL    HW1  755   2.900   0.575   1.199 -2.4671 -3.8196  2.4938
  237SOL    HW2  756   2.912   0.421   1.183 -2.9238 -1.5445  0.2647
  238SOL     OW  757   1.658   0.140   0.667 -0.2508  0.1444 -0.4169
  238SOL    HW1  758   1.585   0.139   0.593  3.2062  3.6131 -1.3746
  238SOL    HW2  759   1.727   0.143   0.598  1.5575 -1.2805  2.3091
  239SOL     OW  760   1.962   2.771   2.025  0.5946 -0.7513  0.9969
  239SOL    HW1  761   2.010   2.842   2.069  2.3502  2.3181 -0.9831
  239SOL    HW2  762   1.888   2.818   1.990  1.2148  0.7496 -1.3340
  240SOL     OW  763   0.978   0.498   0.730 -0.5788 -0.1456  0.3178
  240SOL    HW1  764   0.909   0.501   0.651 -0.3629 -0.2220 -3.2796
  240SOL    HW2  765   0.984   0.591   0.751 -0.1962 -0.7773  2.2766
  241SOL     OW  766   1.549   2.277   1.434  0.5555  0.0139  0.2949
  241SOL    HW1  767   1.511   2.210   1.481 -0.6283  0.6493  0.6413
  241SOL    HW2  768   1.597   2.235   1.363  0.1617 -2.3843 -1.5497
  242SOL     OW  769   2.715   1.243   2.018  0.1194 -0.0269 -0.6151
  242SOL    HW1  770   2.735   1.219   1.922  4.6274  0.2159 -1.2667
  242SOL    HW2  771   2.791   1.205   2.069 -1.2113  3.6369  4.2336
  243SOL     OW  772   2.079   1.159   2.859  0.1697  0.4079 -0.0681
  243SOL    HW1  773   2.097   1.174   2.770  0.9480  1.1908 -1.2154
  243SOL    HW2  774   2.083   1.054   2.874  1.4159 -1.5911 -2.9169
  244SOL     OW  775   1.822   2.455   0.133 -0.2584 -0.2179  0.0960
  244SOL    HW1  776   1.730   2.475   0.115  0.2759  0.1841 -0.4226
  244SOL    HW2  777   1.851   2.545   0.161 -0.6672 -1.0379  0.1732
  245SOL     OW  778   2.613   2.157   0.261  0.0182 -0.0113 -1.0515
  245SOL    HW1  779   2.601   2.215   0.333 -0.3514 -3.3374 -2.3979
  245SOL    HW2  780   2.548   2.090   0.289 -2.1406  2.1832 -0.1943
  246SOL     OW  781   1.003   1.161   2.403 -0.2003 -0.1656  0.1640
  246SOL    HW1  782   1.017   1.187   2.309 -1.0062 -0.6940  1.4607
  246SOL    HW2  783   1.072   1.092   2.405 -3.2981 -3.8673  1.1968
  247SOL     OW  784   2.213   1.289   2.212  0.1321  0.0251 -0.4549
  247SOL    HW1  785   2.315   1.297   2.183  1.3793 -1.4488 -0.9879
  247SOL    HW2  786   2.178   1.361   2.155  0.1372  1.3811  0.2744
  248SOL     OW  787   0.926   1.736   0.395  0.7379 -1.0695  0.8194
  248SOL    HW1  788   0.943   1.705   0.489 -1.1191 -5.5970 -1.2655
  248SOL    HW2  789   0.835   1.764   0.423 -1.5221  0.3757  4.3566
  249SOL     OW  790   2.129   0.214   0.038  0.4148  0.2397  0.8654
  249SOL    HW1  791   2.128   0.121   0.062  0.8082 -1.5754 -1.1183
  249SOL    HW2  792   2.049   0.239   0.082  0.0870 -1.8806 -0.6204
  250SOL     OW  793   0.963   1.829   0.978 -0.3697 -1.0766 -0.3880
  250SOL    HW1  794   1.042   1.837   0.929 -1.6486 -0.3180 -0.8200
  250SOL    HW2  795   1.009   1.793   1.055 -1.4310  1.1627 -0.8456
  251SOL     OW  796   1.016   2.595   1.758 -0.0445  0.6665  0.3161
  251SOL    HW1  797   0.934   2.644   1.734  4.7830  1.0336  0.9016
  251SOL    HW2  798   1.058   2.659   1.818  0.1361  1.0655 -1.1396
  252SOL     OW  799   2.926   0.223   1.913  0.4117 -0.0966  1.2691
  252SOL    HW1  800   2.866   0.246   1.993 -1.1000 -0.3895 -0.6135
  252SOL    HW2  801   2.903   0.130   1.892 -1.4144 -0.1923 -1.2439
  253SOL     OW  802   1.954   0.179   1.032  0.2596  0.2685  0.0051
  253SOL    HW1  803   1.990   0.168   0.949  0.4902  0.9478  2.4818
  253SOL    HW2  804   1.883   0.111   1.022 -2.3954  0.1016 -2.5132
  254SOL     OW  805   0.398   0.737   1.002 -0.6243  0.5781  0.0244
  254SOL    HW1  806   0.472   0.791   0.975 -1.4895  0.8388 -0.0371
  254SOL    HW2  807   0.333   0.801   1.040 -1.9877  0.3921 -3.5356
  255SOL     OW  808   1.552   0.575   2.186  0.8925  1.2571  0.2228
  255SOL    HW1  809   1.564   0.643   2.121 -1.4084  0.6916  2.1829
  255SOL    HW2  810   1.456   0.578   2.193 -0.0473 -0.0313  1.6514
  256SOL     OW  811   0.456   1.292   1.635  0.5805 -0.2046 -0.2417
  256SOL    HW1  812   0.471   1.214   1.576  2.2157  0.1692  0.3139
  256SOL    HW2  813   0.482   1.368   1.577  1.6788 -0.5109  0.4736
  257SOL     OW  814   1.344   2.570   1.427 -0.4107  0.4898 -0.5522
  257SOL    HW1  815   1.352   2.494   1.371  3.1865  1.1905 -0.1110
  257SOL    HW2  816   1.305   2.623   1.360 -1.4027 -1.0054  0.2536
  258SOL     OW  817   0.942   1.398   0.908  0.4277  0.6148  0.1688
  258SOL    HW1  818   1.044   1.436   0.925  4.3432 -1.8707  2.5047
  258SOL    HW2  819   0.939   1.326   0.977  3.3776  1.0080 -1.8175
  259SOL     OW  820   2.489   1.090   0.155  0.4859 -0.3230  0.0242
  259SOL    HW1  821   2.582   1.059   0.143 -1.0370 -0.3584  0.4586
  259SOL    HW2  822   2.429   1.014   0.131 -0.4724  1.6507 -0.4386
  260SOL     OW  823   0.924   1.553   2.657  0.3524 -0.0547  0.4838
  260SOL    HW1  824   0.851   1.613   2.651 -1.1249  3.6820  1.5908
  260SOL    HW2  825   0.900   1.521   2.745 -0.3102  1.2594 -1.8645
  261SOL     OW  826   0.165   2.432   0.636 -0.4167  0.5157  0.7871
  261SOL    HW1  827   0.170   2.333   0.636  4.0136  0.4287 -0.1359
  261SOL    HW2  828   0.153   2.433   0.538 -0.8387 -1.1444 -2.5448
  262SOL     OW  829   1.661   1.313   1.693  0.2514  0.3001 -0.4082
  262SOL    HW1  830   1.634   1.275   1.606  0.6304 -4.7923 -1.5031
  262SOL    HW2  831   1.706   1.234   1.734  1.2321  0.0414  0.1293
  263SOL     OW  832   1.910   0.290   2.374  0.3413 -0.0392  0.6596
  263SOL    HW1  833   1.984   0.338   2.412 -1.8158  1.6494 -3.2709
  263SOL    HW2  834   1.949   0.276   2.282 -1.5425  0.7579 -2.4469
  264SOL     OW  835   1.194   2.209   2.307  0.0382 -0.3148  0.1177
  264SOL    HW1  836   1.131   2.143   2.269  1.2903  4.9922 -4.1696
  264SOL    HW2  837   1.230   2.157   2.392 -1.2209  0.4286 -0.2703
  265SOL     OW  838   1.567   1.566   0.148 -1.2382 -0.0027  0.6463
  265SOL    HW1  839   1.507   1.489   0.131  2.3346  1.5212  0.4229
  265SOL    HW2  840   1.506   1.637   0.111 -1.5909  0.5247 -2.1756
  266SOL     OW  841   0.114   0.615   2.503 -0.0816  0.2619  0.0156
  266SOL    HW1  842   0.084   0.705   2.497 -4.8446 -0.9399  1.1342
  266SOL    HW2  843   0.073   0.583   2.426  1.2271  1.3993  2.4490
  267SOL     OW  844   1.980   0.730   0.010 -0.4818  0.4260 -0.3354
  267SOL    HW1  845   1.976   0.639  -0.014 -2.9596 -0.9500  3.2023
  267SOL    HW2  846   1.886   0.751  -0.009 -0.3535 -0.9389 -1.0583
  268SOL     OW  847   1.886   2.838   2.372  0.5925  0.4603 -0.3340
  268SOL    HW1  848   1.858   2.903   2.301 -3.8808  2.3821 -0.4228
  268SOL    HW2  849   1.981   2.827   2.360 -0.5374 -3.1167  0.8888
  269SOL     OW  850   0.060   1.767   2.037 -0.0472  0.4168 -0.2853
  269SOL    HW1  851   0.091   1.821   2.115  1.3004 -2.5093  0.6375
  269SOL    HW2  852   0.084   1.683   2.079 -3.0486  4.4108  2.5220
  270SOL     OW  853   2.128   2.947   2.186  0.1457  0.1406 -0.2015
  270SOL    HW1  854   2.140   3.036   2.143  2.1477 -0.2443  0.0629
  270SOL    HW2  855   2.212   2.948   2.226  2.5358  2.9402 -1.5056
  271SOL     OW  856   1.831   0.558   0.827  0.2591 -0.8986 -0.3733
  271SOL    HW1  857   1.868   0.648   0.815 -0.8562  0.8935  0.6294
  271SOL    HW2  858   1.738   0.581   0.800  1.2226  2.1641 -3.5324
  272SOL     OW  859   2.430   0.219   1.671 -0.9553  0.2593 -0.3560
  272SOL    HW1  860   2.476   0.143   1.715  1.6997  1.8864  0.2506
  272SOL    HW2  861   2.337   0.190   1.664  0.3938  0.6932  1.0726
  273SOL     OW  862   0.279   2.955   1.717 -0.2479 -0.7575  0.2616
  273SOL    HW1  863   0.187   2.953   1.730  1.2322  1.8329 -3.5710
  273SOL    HW2  864   0.301   2.867   1.764 -2.0047  0.4469  0.2143
  274SOL     OW  865   2.615   1.516   2.640  0.0933 -0.1403 -0.2713
  274SOL    HW1  866   2.580   1.559   2.723 -4.6182  0.2502 -0.7582
  274SOL    HW2  867   2.560   1.431   2.630  1.1928 -0.5661  0.4894
  275SOL     OW  868   2.823   0.404   2.339  0.2794 -0.0055 -0.0147
  275SOL    HW1  869   2.895   0.343   2.348  0.3930  0.6498 -0.5253
  275SOL    HW2  870   2.793   0.373   2.249  2.0665 -1.0087  2.7809
  276SOL     OW  871   2.105   1.518   1.415 -0.0465  0.2776  0.0709
  276SOL    HW1  872   2.047   1.502   1.341 -1.1730  0.1670 -1.6233
  276SOL    HW2  873   2.053   1.469   1.480  0.0845  0.9861 -6.0585
  277SOL     OW  874   1.910   2.053   2.655 -0.2495 -0.1041 -0.0162
  277SOL    HW1  875   1.953   2.008   2.580 -2.4876 -0.0565  3.9647
  277SOL    HW2  876   1.985   2.110   2.680  0.6241 -0.8734  0.1195
  278SOL     OW  877   0.204   0.345   2.810 -0.4298 -0.2890 -0.4482
  278SOL    HW1  878   0.303   0.344   2.823 -1.8741 -2.9313  3.1989
  278SOL    HW2  879   0.190   0.318   2.718 -0.3531  0.1917  1.2285
  279SOL     OW  880   2.880   2.237   0.411  0.0512 -0.4530 -0.2532
  279SOL    HW1  881   2.882   2.139   0.420 -1.3207  2.7063 -0.0453
  279SOL    HW2  882   2.846   2.267   0.495  1.5512 -1.4178 -1.4054
  280SOL     OW  883   2.158   1.111   2.590  0.0800  0.6271  0.6266
  280SOL    HW1  884   2.145   1.011   2.573 -1.2558  1.0584  3.5731
  280SOL    HW2  885   2.252   1.116   2.588  1.3018 -2.5692  0.3473
  281SOL     OW  886   1.190   1.257   1.811 -0.6357 -0.8397  0.1184
  281SOL    HW1  887   1.276   1.207   1.803  0.4377  0.2097 -2.7232
  281SOL    HW2  888   1.189   1.278   1.902  0.8603  0.1992 -0.8272
  282SOL     OW  889   1.462   2.024   2.135  0.1461  0.4251  0.2423
  282SOL    HW1  890   1.452   2.044   2.036  0.4239  1.2464  1.7435
  282SOL    HW2  891   1.507   2.097   2.172 -0.0103 -1.9278  0.7937
  283SOL     OW  892   0.618   1.594   2.961  0.4884  0.0695  0.9970
  283SOL    HW1  893   0.604   1.646   3.039  3.0111 -3.7326 -0.2277
  283SOL    HW2  894   0.650   1.508   3.000  1.8358 -1.2017 -2.0237
  284SOL     OW  895   1.988   0.122   2.006 -0.4518 -0.4427  0.0786
  284SOL    HW1  896   2.056   0.192   1.987 -1.9033  1.4298 -0.9278
  284SOL    HW2  897   1.957   0.130   1.917  0.5914  0.8263  0.6574
  285SOL     OW  898   2.975   0.511   2.748 -0.1856 -0.4072  0.8177
  285SOL    HW1  899   3.007   0.426   2.774  1.1105 -3.4101 -0.9783
  285SOL    HW2  900   3.037   0.526   2.675  0.9899  1.3080  3.6730
  286SOL     OW  901   2.304   0.592   2.302  0.3096 -0.4844 -0.1176
  286SOL    HW1  902   2.204   0.612   2.306 -0.6070 -1.0529  2.2549
  286SOL    HW2  903   2.335   0.683   2.272 -2.8890  2.0505 -0.3716
  287SOL     OW  904   0.457   2.999   2.755 -0.3007 -0.1031 -0.0013
  287SOL    HW1  905   0.513   2.920   2.748  2.2644 -2.0574  2.3044
  287SOL    HW2  906   0.405   2.971   2.830 -0.7933  1.9298  1.4300
  288SOL     OW  907   2.201   1.254   1.875 -0.3278 -0.3835  0.3349
  288SOL    HW1  908   2.255   1.224   1.950  0.6393 -2.0819 -0.1599
  288SOL    HW2  909   2.268   1.270   1.803  2.4105  1.9051  0.7701
  289SOL     OW  910   2.150   0.217   0.733 -0.7517  0.2045  0.1491
  289SOL    HW1  911   2.090   0.281   0.684 -2.0267  2.4836  1.6463
  289SOL    HW2  912   2.229   0.271   0.737 -4.2338 -4.0433 -2.7178
  290SOL     OW  913   0.792   0.508   0.535  0.8380  0.2057 -0.9565
  290SOL    HW1  914   0.752   0.540   0.452  0.2795 -2.4640  2.3686
  290SOL    HW2  915   0.712   0.462   0.567 -0.4901  3.0466  0.7279
  291SOL     OW  916   1.411   1.118   1.736  0.3263  0.9096 -0.3142
  291SOL    HW1  917   1.499   1.166   1.744 -1.7416  1.9682 -2.4788
  291SOL    HW2  918   1.387   1.127   1.643 -0.0384 -1.4872  2.1950
  292SOL     OW  919   0.750   2.974   2.938 -0.8869  0.1319  0.1239
  292SOL    HW1  920   0.766   3.065   2.908 -0.4258 -1.7718  0.2216
  292SOL    HW2  921   0.688   2.989   3.006 -1.1649 -1.0132 -0.7263
  293SOL     OW  922   2.066   2.161   1.790 -0.5831 -0.5945  0.4857
  293SOL    HW1  923   2.012   2.241   1.817  3.7216  2.1527  0.7602
  293SOL    HW2  924   2.111   2.200   1.715 -0.6415  0.1755  0.3729
  294SOL     OW  925   2.515   1.596   2.898  0.0622 -0.3500  0.0546
  294SOL    HW1  926   2.531   1.514   2.937  2.5634 -0.0402  1.8959
  294SOL    HW2  927   2.466   1.652   2.966 -0.5906  4.0505  1.5224
  295SOL     OW  928   1.122   0.431   2.174  0.1041  0.0029 -0.4877
  295SOL    HW1  929   1.038   0.414   2.220  0.5950 -1.3051 -0.5209
  295SOL    HW2  930   1.160   0.347   2.175  1.4429 -0.5876  1.6283
  296SOL     OW  931   2.465   2.370   2.232  0.5031 -0.0050  0.0051
  296SOL    HW1  932   2.427   2.460   2.265  0.2706 -1.8891  3.4353
  296SOL    HW2  933   2.422   2.379   2.150 -0.1700  2.0004  2.3705
  297SOL     OW  934   0.520   2.196   2.259  0.4488 -0.2276 -0.1989
  297SOL    HW1  935   0.607   2.212   2.241  1.6250  0.8679 -2.1907
  297SOL    HW2  936   0.532   2.145   2.348  1.8745  2.8529  0.7560
  298SOL     OW  937   0.040   0.042   1.072 -0.5872 -0.2927  0.9595
  298SOL    HW1  938   0.069  -0.016   0.999  0.9834 -2.2519 -0.9327
  298SOL    HW2  939   0.055  -0.014   1.143 -2.9357  3.7232  0.7546
  299SOL     OW  940   2.867   1.701   1.861 -0.2114 -0.6337  0.0601
  299SOL    HW1  941   2.929   1.724   1.932 -1.8394 -0.3286 -0.7240
  299SOL    HW2  942   2.854   1.783   1.810 -0.4071 -0.8169  0.1520
  300SOL     OW  943   2.582   0.914   0.625 -0.0390 -0.1269  0.6239
  300SOL    HW1  944   2.527   0.843   0.655 -1.3023  2.1748 -1.4592
  300SOL    HW2  945   2.588   0.887   0.535 -1.5663  0.0436 -3.1622
  301SOL     OW  946   0.638   1.786   0.172 -0.2297 -0.1530  0.6727
  301SOL    HW1  947   0.578   1.860   0.203  0.0776  0.8760  2.4409
  301SOL    HW2  948   0.694   1.839   0.115 -1.0377  1.7452 -0.7806
  302SOL     OW  949   2.996   2.018   0.733 -1.2334 -0.9724  0.0285
  302SOL    HW1  950   2.918   1.976   0.701 -1.9236 -2.4433 -0.8031
  302SOL    HW2  951   3.026   1.944   0.794  0.3316  0.1884 -0.6344
  303SOL     OW  952   2.889   1.578   2.790 -0.2158  0.7045 -0.7992
  303SOL    HW1  953   2.952   1.609   2.727  1.9326 -0.0075 -0.3112
  303SOL    HW2  954   2.824   1.539   2.737  0.2030 -2.8364  3.3003
  304SOL     OW  955   1.953   1.677   2.686  0.3688  0.1677  0.7589
  304SOL    HW1  956   1.891   1.654   2.611  2.3084  1.2505 -1.1407
  304SOL    HW2  957   1.944   1.774   2.693 -2.2383  1.9942  1.9398
  305SOL     OW  958   1.709   2.452   2.232  0.1500  0.3130  0.3456
  305SOL    HW1  959   1.716   2.371   2.279  1.5431  1.0746 -0.0857
  305SOL    HW2  960   1.731   2.508   2.312  2.0319 -3.1310  2.8591
  306SOL     OW  961   0.260   1.717   0.065 -0.2042 -0.0420  0.1458
  306SOL    HW1  962   0.182   1.701   0.131  2.8730 -0.3139 -0.1764
  306SOL    HW2  963   0.328   1.658   0.110 -0.7202  2.2430 -0.7856
  307SOL     OW  964   0.894   1.446   2.928  0.1378  0.2388 -0.1950
  307SOL    HW1  965   0.829   1.387   2.884  3.3638  0.1115 -1.3047
  307SOL    HW2  966   0.856   1.457   3.017 -0.4824  1.0741 -0.4332
  308SOL     OW  967   2.297   2.351   1.449  0.2155  0.1857 -0.6040
  308SOL    HW1  968   2.294   2.380   1.360  0.6562  2.7496  1.6056
  308SOL    HW2  969   2.249   2.430   1.476 -1.9196 -0.9140 -3.1833
  309SOL     OW  970   2.764   1.339   1.774 -0.5107  0.5764 -0.1798
  309SOL    HW1  971   2.856   1.318   1.736  0.7858  0.1513  1.0356
  309SOL    HW2  972   2.705   1.303   1.712  0.6655 -0.8107  3.1023
  310SOL     OW  973   0.661   0.283   0.356  0.2503  0.5403  0.7418
  310SOL    HW1  974   0.595   0.317   0.421  1.5155 -0.1288 -0.5153
  310SOL    HW2  975   0.642   0.341   0.275 -2.5244  0.9075  1.9769
  311SOL     OW  976   2.998   0.822   0.428  0.5697  0.8642 -0.3240
  311SOL    HW1  977   2.986   0.902   0.380  2.8025  1.1958  1.4546
  311SOL    HW2  978   2.962   0.849   0.516  1.0916  0.1183 -0.1995
  312SOL     OW  979   2.849   2.182   2.549 -0.8773 -0.0261 -0.4967
  312SOL    HW1  980   2.808   2.168   2.631  0.1925  0.0082  0.0808
  312SOL    HW2  981   2.764   2.203   2.501 -1.1167 -0.0947  1.8780
  313SOL     OW  982   1.798   0.768   1.546  0.1563 -0.1927  0.4043
  313SOL    HW1  983   1.831   0.678   1.573 -0.0709  0.7834  4.2075
  313SOL    HW2  984   1.709   0.756   1.576  2.2343 -0.9655  0.4307
  314SOL     OW  985   1.805   0.058   2.213 -0.1973  0.2571 -0.1256
  314SOL    HW1  986   1.845   0.065   2.127 -0.5683  0.3328 -0.6392
  314SOL    HW2  987   1.797   0.154   2.235 -1.3535 -3.3173 -3.3617
  315SOL     OW  988   1.914   0.235   1.745  0.1147 -0.6099  0.3092
  315SOL    HW1  989   1.831   0.238   1.799  2.7995  2.2472 -2.3368
  315SOL    HW2  990   1.893   0.314   1.682  2.9285  3.0575  0.9518
  316SOL     OW  991   1.082   2.280   0.983  0.6684 -0.3823 -0.8003
  316SOL    HW1  992   1.159   2.244   0.940  0.1419  0.4257 -2.3972
  316SOL    HW2  993   1.010   2.283   0.914 -1.2282 -0.4077  0.3837
  317SOL     OW  994   0.951   2.116   0.407 -0.9401 -0.3868  0.1719
  317SOL    HW1  995   0.947   2.034   0.465 -1.3642  1.5309 -2.6555
  317SOL    HW2  996   0.860   2.118   0.375 -0.3173  0.8678  1.5742
  318SOL     OW  997   2.486   0.227   1.989  0.1617 -0.9493 -0.5005
  318SOL    HW1  998   2.427   0.225   2.064  1.9889 -1.7865 -4.7835
  318SOL    HW2  999   2.527   0.138   1.992 -1.4916  3.6556  0.3644
  319SOL     OW 1000   2.350   0.045   1.206  0.1627  0.2383 -0.0862
  319SOL    HW1 1001   2.363   0.014   1.291 -0.4977  0.4036  0.8595
  319SOL    HW2 1002   2.335   0.137   1.222  2.2237  1.3784 -1.4599
  320SOL     OW 1003   1.469   1.822   0.363 -0.3124  0.2731 -0.1990
  320SOL    HW1 1004   1.375   1.832   0.357 -1.5041  0.8122 -2.5653
  320SOL    HW2 1005   1.508   1.815   0.272 -1.0720  2.2402 -1.3612
  321SOL     OW 1006   1.637   0.413   2.726 -0.3107  0.3675 -0.1690
  321SOL    HW1 1007   1.639   0.322   2.760 -3.4877 -1.1741 -2.9387
  321SOL    HW2 1008   1.572   0.402   2.647  0.7741 -0.7578 -1.1028
  322SOL     OW 1009   1.651   1.234   1.105  0.0239  0.4199  0.1952
  322SOL    HW1 1010   1.641   1.157   1.171 -1.4451 -1.9953  1.1088
  322SOL    HW2 1011   1.564   1.235   1.053 -5.3455  1.0923 -2.7575
  323SOL     OW 1012   0.380   0.725   1.335 -0.1131  0.0459 -0.0280
  323SOL    HW1 1013   0.301   0.668   1.354 -1.1742 -0.9750 -2.1897
  323SOL    HW2 1014   0.341   0.800   1.288 -2.6536 -0.6520  1.4884
  324SOL     OW 1015   2.357   0.812   0.092  0.0603  0.2555 -0.1597
  324SOL    HW1 1016   2.381   0.824   0.186  3.4895 -2.5844 -1.3620
  324SOL    HW2 1017   2.293   0.735   0.115  3.9686 -2.4183 -0.8442
  325SOL     OW 1018   2.311   2.375   0.894 -0.0046 -0.0374 -0.4283
  325SOL    HW1 1019   2.317   2.291   0.834  3.2069  2.8204  0.8734
  325SOL    HW2 1020   2.250   2.431   0.845 -2.9913  1.3576 -0.1129
  326SOL     OW 1021   1.256   2.556   0.023  0.1833  0.1761 -0.1156
  326SOL    HW1 1022   1.197   2.634   0.007  0.2170 -3.2783 -0.4300
  326SOL    HW2 1023   1.210   2.484  -0.023  2.5574 -1.8013 -0.2099
  327SOL     OW 1024   2.775   2.293   2.120  0.1159 -0.2054  0.8351
  327SOL    HW1 1025   2.773   2.200   2.145 -4.3519 -2.6979 -0.1617
  327SOL    HW2 1026   2.697   2.282   2.061 -1.8974  3.7047  2.0018
  328SOL     OW 1027   2.748   0.122   0.819  0.3014 -0.4248 -0.4297
  328SOL    HW1 1028   2.673   0.084   0.875  0.6229 -0.4615  1.1594
  328SOL    HW2 1029   2.822   0.084   0.864  1.3961 -0.5319 -2.9477
  329SOL     OW 1030   1.478   2.578   1.734  0.0992  0.1775  0.3276
  329SOL    HW1 1031   1.571   2.550   1.712  1.4849 -0.9473  1.8619
  329SOL    HW2 1032   1.480   2.553   1.825  0.5307  0.6125 -1.6238
  330SOL     OW 1033   0.033   1.785   2.462 -0.2601 -0.2617  0.1752
  330SOL    HW1 1034   0.092   1.784   2.382  1.0478  0.0536  0.4689
  330SOL    HW2 1035   0.069   1.715   2.527  0.0619 -0.0898  0.0718
  331SOL     OW 1036   1.518   2.611   0.698  0.1728  0.4814 -0.1228
  331SOL    HW1 1037   1.568   2.671   0.757 -0.2322  1.1971 -0.5680
  331SOL    HW2 1038   1.466   2.559   0.754 -1.1224 -1.5042 -2.1055
  332SOL     OW 1039   2.178   0.855   0.647  0.1442 -0.2268 -0.4809
  332SOL    HW1 1040   2.234   0.774   0.675 -3.0435  0.5054 -2.2147
  332SOL    HW2 1041   2.191   0.858   0.555 -0.4004  2.9882  1.7536
  333SOL     OW 1042   2.147   0.336   2.236 -0.5514 -0.6427 -0.0858
  333SOL    HW1 1043   2.166   0.316   2.142  1.6553 -0.3188  1.2742
  333SOL    HW2 1044   2.191   0.421   2.243  0.3494 -1.5154 -2.0254
  334SOL     OW 1045   1.932   1.704   1.038  0.5062 -0.2157 -0.3781
  334SOL    HW1 1046   2.012   1.725   0.989 -2.3952 -0.7905 -0.2711
  334SOL    HW2 1047   1.885   1.668   0.960  1.7894 -0.6443 -2.2787
  335SOL     OW 1048   2.056   0.083   2.729  0.6322  0.2888 -0.7104
  335SOL    HW1 1049   2.139   0.135   2.761  1.2397 -3.0196 -0.6517
  335SOL    HW2 1050   1.988   0.151   2.731 -0.1541 -2.8009 -0.9474
  336SOL     OW 1051   0.048   0.261   2.555 -0.3287  0.2354  0.1129
  336SOL    HW1 1052   0.066   0.174   2.512 -1.3417 -0.0913  1.7413
  336SOL    HW2 1053  -0.050   0.258   2.540  0.6334 -2.3676 -1.8179
  337SOL     OW 1054   0.156   2.730   0.449 -0.2142 -0.2803 -0.7141
  337SOL    HW1 1055   0.057   2.725   0.466  0.2218 -2.0886  1.6746
  337SOL    HW2 1056   0.156   2.642   0.416  1.4555  2.2773  0.2824
  338SOL     OW 1057   1.855   2.275   0.337  0.2198 -0.6610 -0.0723
  338SOL    HW1 1058   1.818   2.286   0.242  0.2597  0.0380 -1.6584
  338SOL    HW2 1059   1.804   2.350   0.376  1.4213  1.1075 -1.1239
  339SOL     OW 1060   1.445   0.355   1.860  0.6543 -0.9432  0.1426
  339SOL    HW1 1061   1.364   0.383   1.908  0.9188 -0.2747  0.2336
  339SOL    HW2 1062   1.472   0.440   1.839 -1.0276 -3.9368  0.7075
  340SOL     OW 1063   0.173   0.827   2.173 -0.2722 -0.6085 -0.1582
  340SOL    HW1 1064   0.132   0.913   2.163 -0.1006  0.5252 -2.3428
  340SOL    HW2 1065   0.244   0.849   2.239 -0.4144 -0.9779 -2.3244
  341SOL     OW 1066   2.664   2.228   1.583 -0.0053  0.8037  0.1774
  341SOL    HW1 1067   2.698   2.218   1.495  0.9185  0.2938 -0.4190
  341SOL    HW2 1068   2.576   2.274   1.569 -0.0482  1.3175  0.1033
  342SOL     OW 1069   2.535   2.537   2.973 -0.1031  0.2967  0.3104
  342SOL    HW1 1070   2.539   2.452   3.021 -0.8528 -3.3384 -1.4500
  342SOL    HW2 1071   2.447   2.527   2.934  3.8759  0.5364 -1.3478
  343SOL     OW 1072   0.358   1.061   1.478 -0.3693  0.4462 -0.0119
  343SOL    HW1 1073   0.436   1.006   1.469  2.0478  0.9167 -3.2957
  343SOL    HW2 1074   0.302   0.987   1.512 -0.3101  1.9283  2.2136
  344SOL     OW 1075   2.592   1.215   1.602  0.4602 -0.1040 -0.4624
  344SOL    HW1 1076   2.609   1.120   1.622 -1.5775  1.2561 -0.3694
  344SOL    HW2 1077   2.499   1.218   1.627  1.6019  1.8576 -0.4802
  345SOL     OW 1078   2.098   1.965   2.451  1.1029 -0.1678 -0.2923
  345SOL    HW1 1079   2.146   1.891   2.402  0.4929  0.0896  0.7581
  345SOL    HW2 1080   2.161   2.031   2.446  2.2158  0.0364  0.2926
  346SOL     OW 1081   2.320   2.964   1.908 -0.2703  1.1271  0.2820
  346SOL    HW1 1082   2.371   2.914   1.846  2.2012  1.8524 -0.2941
  346SOL    HW2 1083   2.262   3.011   1.849  0.2723 -0.2486 -1.4974
  347SOL     OW 1084   1.918   2.708   0.085  0.1373 -0.1040  0.2413
  347SOL    HW1 1085   1.892   2.797   0.064  0.8178  2.5463  2.2598
  347SOL    HW2 1086   2.016   2.719   0.083 -0.6814  0.0120 -3.8006
  348SOL     OW 1087   1.558   0.925   2.418 -0.3555 -0.2583 -0.3948
  348SOL    HW1 1088   1.646   0.911   2.456 -0.0393 -0.7087 -0.9308
  348SOL    HW2 1089   1.538   1.013   2.447 -0.0073  4.0131  0.6994
  349SOL     OW 1090   1.532   1.143   2.572  0.9081 -0.1497 -0.3784
  349SOL    HW1 1091   1.582   1.092   2.636 -0.7552  0.0933  1.1216
  349SOL    HW2 1092   1.442   1.150   2.616 -1.6843  0.4033  0.4273
  350SOL     OW 1093   1.643   1.059   0.215  0.3060 -0.8982  0.6911
  350SOL    HW1 1094   1.740   1.085   0.223 -1.9216  0.0718  0.3769
  350SOL    HW2 1095   1.627   1.115   0.133 -1.0196 -0.8822  0.4786
  351SOL     OW 1096   1.654   1.059   0.491 -0.4152 -0.3711 -0.1395
  351SOL    HW1 1097   1.732   1.008   0.491  0.1400  0.3650  0.3618
  351SOL    HW2 1098   1.621   1.064   0.398  2.0177 -0.2140 -2.7021
  352SOL     OW 1099   2.153   0.956   1.365  0.7109 -0.1776 -0.9871
  352SOL    HW1 1100   2.128   0.867   1.340  0.0695 -1.1006 -1.6582
  352SOL    HW2 1101   2.144   0.946   1.461 -0.2275  0.6768 -0.1177
  353SOL     OW 1102   0.852   2.967   0.734  0.6202 -0.9407  0.2316
  353SOL    HW1 1103   0.817   3.041   0.676 -0.2013 -2.3037  2.7110
  353SOL    HW2 1104   0.779   2.948   0.791 -3.1661  4.3585  0.8861
  354SOL     OW 1105   0.660   2.192   1.283  0.1585  0.9093 -0.3735
  354SOL    HW1 1106   0.754   2.167   1.278  0.0148 -0.6876 -0.6570
  354SOL    HW2 1107   0.657   2.266   1.225 -0.1515 -2.7549 -2.2526
  355SOL     OW 1108   0.289   2.707   1.771  0.4212  0.7815  0.4347
  355SOL    HW1 1109   0.337   2.691   1.854  0.1605 -1.0623 -2.1101
  355SOL    HW2 1110   0.284   2.618   1.743  0.7654  1.6921  1.9491
  356SOL     OW 1111   1.334   1.537   1.807 -0.1940 -0.0028 -0.4445
  356SOL    HW1 1112   1.321   1.468   1.739  0.1023 -1.0623 -2.3568
  356SOL    HW2 1113   1.431   1.555   1.809  5.0706  0.8657 -0.2185
  357SOL     OW 1114   0.854   0.501   2.721  0.7922  0.1629  0.2211
  357SOL    HW1 1115   0.816   0.452   2.641 -0.7085  0.9771  2.1292
  357SOL    HW2 1116   0.937   0.467   2.738 -3.8649  0.4867  0.4903
  358SOL     OW 1117   0.194   1.919   2.230 -0.1501  0.1199  0.5997
  358SOL    HW1 1118   0.203   2.014   2.210 -1.7981 -2.6530  1.9112
  358SOL    HW2 1119   0.267   1.913   2.291 -0.4919  1.7507  2.2114
  359SOL     OW 1120   1.753   1.563   2.892  0.0788  0.5851 -0.4736
  359SOL    HW1 1121   1.771   1.532   2.978 -0.9641 -0.5994  0.8169
  359SOL    HW2 1122   1.845   1.574   2.846  3.1062 -0.2243  0.5163
  360SOL     OW 1123   1.620   2.788   2.742  0.0045  0.2728 -0.3638
  360SOL    HW1 1124   1.686   2.839   2.687  1.3341 -1.6942 -3.2347
  360SOL    HW2 1125   1.665   2.711   2.781 -0.7979 -1.5814  0.6408
  361SOL     OW 1126   1.700   1.698   2.488 -0.0915 -0.1658 -0.0797
  361SOL    HW1 1127   1.624   1.746   2.479  0.0020  1.6687 -0.8340
  361SOL    HW2 1128   1.715   1.681   2.392 -1.5937 -1.1534 -1.9618
  362SOL     OW 1129   1.302   0.838   2.934 -0.5084  0.7370  0.0465
  362SOL    HW1 1130   1.386   0.857   2.896 -0.2035  0.8777  0.2660
  362SOL    HW2 1131   1.283   0.758   2.884  3.1679  1.0022 -0.1262
  363SOL     OW 1132   1.448   0.532   0.561 -0.0385  0.1048 -0.4583
  363SOL    HW1 1133   1.351   0.544   0.546 -0.8488 -0.6436  0.7279
  363SOL    HW2 1134   1.490   0.614   0.525 -3.5462  1.1034 -1.1537
  364SOL     OW 1135   2.498   2.021   1.367 -0.0188 -0.4003  0.7494
  364SOL    HW1 1136   2.584   2.043   1.396  3.5453  0.8289 -1.9299
  364SOL    HW2 1137   2.522   1.941   1.315 -1.3503  0.2142  0.0736
  365SOL     OW 1138   0.065   0.591   2.226 -0.2625 -0.1834  0.2693
  365SOL    HW1 1139   0.120   0.669   2.205 -0.9900 -1.8534  1.0569
  365SOL    HW2 1140  -0.030   0.624   2.206 -1.0753 -4.4561  1.0936
  366SOL     OW 1141   1.014   0.079   0.514  0.3472  0.3435  0.3456
  366SOL    HW1 1142   1.054   0.173   0.497  2.6096  1.8845  1.1663
  366SOL    HW2 1143   0.926   0.106   0.542  3.1442  0.8104  1.5683
  367SOL     OW 1144   0.289   0.216   1.233 -0.0020 -0.2440 -0.3983
  367SOL    HW1 1145   0.223   0.152   1.202 -2.7089 -1.2694  2.4346
  367SOL    HW2 1146   0.325   0.164   1.304 -3.4638  1.4322  1.9733
  368SOL     OW 1147   1.876   0.568   2.689 -0.8517 -0.7079  0.4440
  368SOL    HW1 1148   1.838   0.622   2.618 -1.4834 -0.3990 -0.7508
  368SOL    HW2 1149   1.811   0.497   2.694 -0.0267 -0.4904  0.1206
  369SOL     OW 1150   1.729   0.430   0.467 -0.3762 -0.2267 -0.3356
  369SOL    HW1 1151   1.640   0.447   0.506 -0.9155  0.7530  1.2588
  369SOL    HW2 1152   1.722   0.455   0.378  0.3532 -0.9190 -0.8492
  370SOL     OW 1153   0.397   0.716   0.002 -0.7424 -0.0929 -0.0728
  370SOL    HW1 1154   0.466   0.707  -0.062  0.2352 -2.9653  0.5909
  370SOL    HW2 1155   0.417   0.797   0.041 -0.4614 -0.7153  1.4999
  371SOL     OW 1156   1.555   1.323   0.571  0.0883 -0.6641 -0.0932
  371SOL    HW1 1157   1.637   1.373   0.548  2.4938 -1.4368  1.4292
  371SOL    HW2 1158   1.588   1.238   0.550 -2.2467  4.2745  1.3560
  372SOL     OW 1159   2.191   1.664   1.629 -0.8806  0.1744  0.2939
  372SOL    HW1 1160   2.189   1.621   1.545  2.3014 -0.9365  2.4845
  372SOL    HW2 1161   2.184   1.756   1.606 -2.2486  1.0095  2.3726
  373SOL     OW 1162   0.121   0.926   2.517  1.0224 -0.6193 -0.6057
  373SOL    HW1 1163   0.074   0.969   2.589  2.1798  0.3930  0.8455
  373SOL    HW2 1164   0.048   0.932   2.454 -2.4842 -1.0606  0.3198
  374SOL     OW 1165   1.191   0.580   0.541  0.2402  0.4470 -0.0516
  374SOL    HW1 1166   1.116   0.643   0.516  1.1825  1.6564  1.0383
  374SOL    HW2 1167   1.163   0.576   0.634  0.6866  4.1521  0.6524
  375SOL     OW 1168   1.967   2.608   0.951  0.0763 -0.2292  0.0598
  375SOL    HW1 1169   2.018   2.613   1.032 -2.9109  0.5680  2.5873
  375SOL    HW2 1170   1.888   2.562   0.985 -4.6262 -0.6163  0.2122
  376SOL     OW 1171   1.260   1.936   0.520  0.4952  0.4806  0.3852
  376SOL    HW1 1172   1.166   1.945   0.533  0.6747  1.4379 -0.3145
  376SOL    HW2 1173   1.281   1.976   0.606 -0.9651 -0.9129  1.4210
  377SOL     OW 1174   1.540   2.117   1.158  0.1395 -0.0526 -0.3959
  377SOL    HW1 1175   1.467   2.069   1.132  3.5469 -1.7208 -1.7234
  377SOL    HW2 1176   1.524   2.208   1.118 -0.5050  4.2254 -2.1936
  378SOL     OW 1177   2.497   1.870   1.744  0.3683  0.7465 -0.3691
  378SOL    HW1 1178   2.467   1.937   1.810  0.0155  1.6138  1.9436
  378SOL    HW2 1179   2.419   1.865   1.677  1.3358 -1.7955 -0.4497
  379SOL     OW 1180   2.414   0.893   2.834  0.2805 -0.2467  0.3761
  379SOL    HW1 1181   2.368   0.808   2.816  2.4572  0.4992  0.2814
  379SOL    HW2 1182   2.414   0.886   2.935 -0.6057  0.6982  0.1766
  380SOL     OW 1183   2.392   1.580   1.366  0.8363  0.2118 -0.5238
  380SOL    HW1 1184   2.355   1.509   1.424  1.2853 -1.6322  1.6400
  380SOL    HW2 1185   2.327   1.598   1.299 -3.3243  0.8461  1.4972
  381SOL     OW 1186   2.802   1.782   2.222  0.3529  0.5338 -0.3882
  381SOL    HW1 1187   2.754   1.797   2.301  1.6109 -1.6850 -2.7931
  381SOL    HW2 1188   2.835   1.869   2.210 -0.2929  2.0914  3.3970
  382SOL     OW 1189   2.263   2.010   1.183 -0.6215 -0.3415 -0.1783
  382SOL    HW1 1190   2.268   1.935   1.244  0.8912  3.4960 -0.8807
  382SOL    HW2 1191   2.358   2.011   1.160  2.5130 -0.3620  0.2215
  383SOL     OW 1192   0.411   0.837   2.304  0.3447  0.1626  0.2014
  383SOL    HW1 1193   0.452   0.922   2.350  3.1137 -0.6708 -0.3641
  383SOL    HW2 1194   0.498   0.793   2.282  2.1305 -0.7497 -1.4767
  384SOL     OW 1195   2.597   2.616   1.883 -0.2861 -0.1615  0.6143
  384SOL    HW1 1196   2.606   2.616   1.982 -1.0152 -0.4530 -0.3036
  384SOL    HW2 1197   2.584   2.523   1.870 -0.5137  0.1620 -2.1208
  385SOL     OW 1198   0.112   1.830   0.861  0.1884  0.2375 -0.2127
  385SOL    HW1 1199   0.199   1.808   0.826  0.8944 -0.7022  2.4391
  385SOL    HW2 1200   0.108   1.778   0.949 -0.0972 -2.5435 -0.7981
  386SOL     OW 1201   2.682   2.286   2.797  0.6145  0.2904 -0.2323
  386SOL    HW1 1202   2.605   2.304   2.748 -1.3100 -1.5896  1.5437
  386SOL    HW2 1203   2.656   2.336   2.885 -0.6230 -1.1510 -0.0757
  387SOL     OW 1204   2.886   0.902   2.337  0.6488 -0.0574 -0.0180
  387SOL    HW1 1205   2.909   0.924   2.244 -0.2512  0.3892  1.2043
  387SOL    HW2 1206   2.878   0.803   2.327  2.3409 -3.7638  0.0991
  388SOL     OW 1207   0.052   0.673   0.785 -0.3650 -0.1289 -0.5623
  388SOL    HW1 1208   0.094   0.612   0.847 -0.3575  1.4601  2.6124
  388SOL    HW2 1209   0.105   0.658   0.707 -1.2284  0.4019 -1.0158
  389SOL     OW 1210   1.458   2.049   2.736  0.4875  0.1534 -0.8573
  389SOL    HW1 1211   1.384   1.991   2.742  0.4246 -0.1491  2.2871
  389SOL    HW2 1212   1.536   1.988   2.747  0.3870  3.5472 -0.3464
  390SOL     OW 1213   0.052   1.336   2.348 -1.0389  0.0802 -0.1856
  390SOL    HW1 1214   0.125   1.395   2.382 -0.8346 -0.0200  1.5128
  390SOL    HW2 1215  -0.002   1.388   2.294  0.7793 -1.6685 -2.4348
  391SOL     OW 1216   2.131   2.928   1.089 -0.0969 -0.3031  0.9452
  391SOL    HW1 1217   2.215   2.972   1.117 -0.2588  2.5329 -1.4176
  391SOL    HW2 1218   2.142   2.955   0.992  1.7102  0.9449  1.7810
  392SOL     OW 1219   2.601   1.755   2.062  0.1408 -0.1570  0.1628
  392SOL    HW1 1220   2.684   1.752   2.121  1.5187 -3.3114 -0.8013
  392SOL    HW2 1221   2.606   1.700   1.981 -3.9012  1.9631 -0.1068
  393SOL     OW 1222   0.602   1.886   2.615 -0.0202 -0.3541 -0.8417
  393SOL    HW1 1223   0.607   1.799   2.652  1.3206  0.3654  0.7957
  393SOL    HW2 1224   0.622   1.874   2.525 -2.1109  1.2091  2.1064
  394SOL     OW 1225   2.533   1.495   0.182  0.0825 -0.6687 -0.2874
  394SOL    HW1 1226   2.480   1.451   0.249  2.3636 -0.2337  2.0894
  394SOL    HW2 1227   2.555   1.572   0.233 -5.7672 -1.7639 -0.5581
  395SOL     OW 1228   1.862   0.856   0.503  0.4863 -0.6351 -1.0870
  395SOL    HW1 1229   1.932   0.915   0.531 -1.6487  2.1292  5.0806
  395SOL    HW2 1230   1.920   0.801   0.441  0.1444 -1.5052 -2.8516
  396SOL     OW 1231   1.734   1.122   2.777  0.1413  0.0354 -0.5633
  396SOL    HW1 1232   1.715   1.174   2.854  1.5378 -2.1267  3.0657
  396SOL    HW2 1233   1.798   1.184   2.731 -1.0561  2.6669  1.2569
  397SOL     OW 1234   0.682   0.720   0.686 -0.3618  0.3554  0.1735
  397SOL    HW1 1235   0.747   0.659   0.644  1.0102  2.6334 -1.3301
  397SOL    HW2 1236   0.596   0.673   0.683  1.1755 -0.0783 -1.7457
  398SOL     OW 1237   0.431   2.106   2.552  0.3172  0.0220 -0.5735
  398SOL    HW1 1238   0.487   2.038   2.599  3.0927  0.1440  1.0749
  398SOL    HW2 1239   0.352   2.101   2.611 -2.5852 -2.3235  3.4414
  399SOL     OW 1240   0.858   1.889   1.246 -0.5239  0.3372  0.3118
  399SOL    HW1 1241   0.878   1.870   1.337  0.1544  2.7569 -2.0957
  399SOL    HW2 1242   0.867   1.985   1.242  0.2181  1.6217  2.9479
  400SOL     OW 1243   2.350   1.929   2.116 -0.2748  0.0664 -0.5582
  400SOL    HW1 1244   2.444   1.929   2.084 -1.3581  1.6111 -2.1428
  400SOL    HW2 1245   2.305   1.963   2.037 -4.0863 -0.8929  1.5878
  401SOL     OW 1246   1.665   2.817   0.449  0.3386 -0.1437  0.3264
  401SOL    HW1 1247   1.614   2.885   0.497 -0.6628  0.5739  1.3882
  401SOL    HW2 1248   1.680   2.755   0.522  3.5167 -3.2486 -0.7686
  402SOL     OW 1249   1.688   0.972   2.135  0.2530 -0.0895  0.3870
  402SOL    HW1 1250   1.713   1.066   2.157 -0.8886 -0.9202  0.2957
  402SOL    HW2 1251   1.639   0.952   2.212 -0.9004 -0.3565 -1.2080
  403SOL     OW 1252   1.503   1.571   0.602  0.3731  0.2441  0.0489
  403SOL    HW1 1253   1.413   1.595   0.569  0.9889 -1.6257  1.4546
  403SOL    HW2 1254   1.510   1.478   0.572 -0.0353 -1.0670 -0.2027
  404SOL     OW 1255   1.013   1.326   0.661  0.1769  0.6143  0.3090
  404SOL    HW1 1256   0.993   1.350   0.751 -0.8562 -2.4939  1.8705
  404SOL    HW2 1257   1.108   1.299   0.669  0.8769 -0.1598  0.9238
  405SOL     OW 1258   1.278   0.252   0.881 -0.7131  0.1531  0.3863
  405SOL    HW1 1259   1.295   0.203   0.796  0.1200  1.4014 -3.5222
  405SOL    HW2 1260   1.219   0.183   0.925  0.2417 -2.1332  1.5238
  406SOL     OW 1261   2.119   0.565   1.651  0.0445 -0.2564  0.9620
  406SOL    HW1 1262   2.074   0.481   1.625 -1.8822 -4.2272 -0.6101
  406SOL    HW2 1263   2.202   0.546   1.610 -0.3170 -0.5407  1.3694
  407SOL     OW 1264   1.356   2.404   0.342  0.5428 -0.3309 -0.7759
  407SOL    HW1 1265   1.318   2.340   0.279  0.6790  0.5723 -0.8498
  407SOL    HW2 1266   1.392   2.469   0.274 -0.7233 -1.2078  3.3974
  408SOL     OW 1267   2.707   1.706   2.473 -0.6161  0.1907  0.1370
  408SOL    HW1 1268   2.680   1.640   2.541  4.5121 -2.7172 -2.0735
  408SOL    HW2 1269   2.772   1.660   2.417 -1.1906 -1.2222  0.4169
  409SOL     OW 1270   0.381   1.937   1.670 -0.3880  0.0494 -0.8240
  409SOL    HW1 1271   0.387   1.841   1.647 -0.2580 -0.8696 -1.3152
  409SOL    HW2 1272   0.322   1.926   1.755  4.5605 -0.6720  0.2232
  410SOL     OW 1273   2.383   2.149   2.844  0.3599  1.2462 -0.0670
  410SOL    HW1 1274   2.324   2.108   2.910 -0.4342  3.1392 -2.6470
  410SOL    HW2 1275   2.453   2.080   2.841 -2.5387 -0.3305  0.4020
  411SOL     OW 1276   0.781   0.178   0.584  0.6948 -0.0542  0.1859
  411SOL    HW1 1277   0.761   0.234   0.504  0.7823 -1.8477  3.2158
  411SOL    HW2 1278   0.727   0.232   0.648  0.1955  1.9453  3.9111
  412SOL     OW 1279   0.725   1.101   0.193 -0.5486  0.0206  0.3921
  412SOL    HW1 1280   0.780   1.046   0.126  0.9567 -3.3340 -2.7636
  412SOL    HW2 1281   0.782   1.131   0.261  1.4420  2.6085 -2.8589
  413SOL     OW 1282   2.596   0.081   1.083  1.0013 -0.4885 -0.3785
  413SOL    HW1 1283   2.499   0.078   1.109  0.1622 -0.2186  0.6475
  413SOL    HW2 1284   2.643   0.061   1.165 -1.3138  2.2106  1.9376
  414SOL     OW 1285   2.921   0.473   1.759 -0.6154 -0.4468  0.8883
  414SOL    HW1 1286   2.916   0.498   1.853  5.1196  0.3810 -1.5265
  414SOL    HW2 1287   2.991   0.405   1.771  1.8689  0.5568  0.3936
  415SOL     OW 1288   2.095   2.588   2.699 -0.0191  0.1688  0.1339
  415SOL    HW1 1289   2.158   2.532   2.749 -0.2306 -3.4140 -1.2953
  415SOL    HW2 1290   2.032   2.627   2.767 -1.0234 -0.0019 -3.1036
  416SOL     OW 1291   1.673   1.061   1.863  0.3480  0.4632  0.8104
  416SOL    HW1 1292   1.765   1.026   1.879 -2.5677  1.1198 -2.2575
  416SOL    HW2 1293   1.642   1.056   1.952  0.3455 -1.6061 -2.2306
  417SOL     OW 1294   0.643   1.793   1.651  0.4737  0.5091  0.6961
  417SOL    HW1 1295   0.622   1.830   1.738 -2.9606 -1.1407  1.3957
  417SOL    HW2 1296   0.572   1.728   1.640 -1.3255 -2.5128  1.1738
  418SOL     OW 1297   0.162   0.776   2.892 -0.6147  0.5692 -0.5836
  418SOL    HW1 1298   0.126   0.689   2.902 -2.0946 -1.5149 -3.2607
  418SOL    HW2 1299   0.248   0.764   2.937  0.2195  1.6781  0.1478
  419SOL     OW 1300   2.709   2.048   1.049  0.1509  0.6988  0.0882
  419SOL    HW1 1301   2.714   2.106   0.969 -2.0135 -0.7110  0.8451
  419SOL    HW2 1302   2.626   2.087   1.092 -0.2463  2.1502  0.5764
  420SOL     OW 1303   0.009   2.112   0.169 -0.7373  0.5440 -0.3110
  420SOL    HW1 1304  -0.057   2.181   0.208  2.0730 -5.9284  1.7079
  420SOL    HW2 1305   0.032   2.161   0.085 -0.2722  0.4283 -0.4915
  421SOL     OW 1306   0.996   0.784   0.481  0.5867 -0.0253  0.8769
  421SOL    HW1 1307   0.955   0.795   0.393 -0.1032 -1.7064 -3.6286
  421SOL    HW2 1308   0.957   0.853   0.537 -0.3525 -2.1613 -0.2787
  422SOL     OW 1309   1.415   1.223   0.928  0.3614 -0.1637 -0.1717
  422SOL    HW1 1310   1.460   1.169   0.853 -0.9616 -1.4442 -1.8102
  422SOL    HW2 1311   1.329   1.218   0.882  2.7222 -1.2491 -3.1672
  423SOL     OW 1312   0.184   2.835   0.945  0.3338 -1.1900  0.0157
  423SOL    HW1 1313   0.109   2.788   0.909 -0.2182  0.8138 -1.1039
  423SOL    HW2 1314   0.255   2.784   0.909  1.1648 -1.2622 -1.3472
  424SOL     OW 1315   2.253   1.971   1.881  0.4380  0.7460 -0.4005
  424SOL    HW1 1316   2.217   1.893   1.844  2.2422 -0.0051 -2.2157
  424SOL    HW2 1317   2.178   2.031   1.869  2.9607  0.4078  1.7692
  425SOL     OW 1318   1.829   2.329   1.724 -0.4370 -0.2996 -0.1025
  425SOL    HW1 1319   1.867   2.290   1.639  0.7595  2.4044 -2.4982
  425SOL    HW2 1320   1.752   2.269   1.737 -0.1963  2.5044  1.0113
  426SOL     OW 1321   0.590   0.812   2.792  0.2151 -0.3138 -0.0837
  426SOL    HW1 1322   0.647   0.890   2.797 -0.8983 -0.6675 -1.2957
  426SOL    HW2 1323   0.508   0.842   2.744 -1.3032 -2.9280  0.6986
  427SOL     OW 1324   2.294   1.716   0.573 -0.5666 -0.1717 -0.1184
  427SOL    HW1 1325   2.367   1.764   0.602 -1.2882  0.3368 -1.8113
  427SOL    HW2 1326   2.246   1.790   0.522 -1.4366  3.4533  0.3951
  428SOL     OW 1327   0.029   1.299   2.053 -0.0887 -0.2549  0.4098
  428SOL    HW1 1328  -0.020   1.378   2.075 -2.7515 -0.7443  1.6391
  428SOL    HW2 1329   0.090   1.328   1.979 -4.1975  0.1671 -0.6299
  429SOL     OW 1330   1.224   2.244   0.545  0.4307  0.5819  0.7150
  429SOL    HW1 1331   1.274   2.322   0.522  0.9620 -2.1849 -1.5006
  429SOL    HW2 1332   1.174   2.231   0.462  2.2463 -0.9186 -3.0294
  430SOL     OW 1333   1.502   0.562   0.024 -0.6210  0.6221  0.4738
  430SOL    HW1 1334   1.440   0.583   0.092  0.1196  0.2486 -0.3270
  430SOL    HW2 1335   1.436   0.549  -0.049  1.9166  0.9101  2.4147
  431SOL     OW 1336   0.413   2.385   0.361  0.3107 -0.4332 -0.0142
  431SOL    HW1 1337   0.468   2.381   0.285 -1.5228  0.3816  2.8308
  431SOL    HW2 1338   0.331   2.402   0.311  0.1075  0.3887  2.1031
  432SOL     OW 1339   2.567   1.400   0.938  0.4583  0.1635 -0.0461
  432SOL    HW1 1340   2.498   1.463   0.925  0.3434 -1.3377  0.8055
  432SOL    HW2 1341   2.528   1.310   0.936  3.0968 -2.2449  3.0576
  433SOL     OW 1342   1.086   2.613   2.784  0.1867 -0.4987  0.5719
  433SOL    HW1 1343   1.030   2.557   2.837 -1.5849  0.6870 -3.9823
  433SOL    HW2 1344   1.100   2.550   2.710  2.2311 -3.5382  1.0038
  434SOL     OW 1345   1.010   1.942   0.652  0.3147  0.4397 -0.3825
  434SOL    HW1 1346   1.015   1.849   0.686 -0.3068  0.1514  2.0194
  434SOL    HW2 1347   1.060   1.986   0.728 -1.2785 -2.2825  1.7176
  435SOL     OW 1348   2.271   2.157   2.279  0.6857 -0.6014  0.0144
  435SOL    HW1 1349   2.287   2.078   2.220 -0.5334 -4.2781  0.9769
  435SOL    HW2 1350   2.306   2.231   2.225 -0.2583  0.5036  3.1743
  436SOL     OW 1351   0.861   0.219   2.869 -0.2619 -0.0327  0.3326
  436SOL    HW1 1352   0.888   0.282   2.924 -0.7223 -0.8038 -3.6057
  436SOL    HW2 1353   0.875   0.261   2.780 -0.7760 -1.0207 -1.2417
  437SOL     OW 1354   2.748   0.614   0.537 -0.2038  0.3373  0.1327
  437SOL    HW1 1355   2.760   0.517   0.559  1.4114  0.4324  0.1887
  437SOL    HW2 1356   2.787   0.607   0.449  2.8161  0.2669 -1.0368
  438SOL     OW 1357   0.574   1.318   0.879 -0.6790  0.3106  0.1482
  438SOL    HW1 1358   0.643   1.245   0.892 -1.7314 -2.0604 -1.5217
  438SOL    HW2 1359   0.636   1.393   0.861  4.7325 -0.3863 -0.9799
  439SOL     OW 1360   2.353   0.141   2.281 -0.0716 -0.6963 -0.2169
  439SOL    HW1 1361   2.282   0.199   2.288  1.2203 -1.0266 -2.2808
  439SOL    HW2 1362   2.416   0.178   2.346  1.5101  1.3635 -3.2946
  440SOL     OW 1363   0.888   2.123   1.608  0.0262 -0.4564  0.0652
  440SOL    HW1 1364   0.793   2.119   1.594  2.0901 -3.7202 -0.6117
  440SOL    HW2 1365   0.912   2.185   1.536 -0.3887  1.8043  2.3730
  441SOL     OW 1366   0.911   1.040   1.282  0.8009 -0.7131  0.3324
  441SOL    HW1 1367   0.915   1.066   1.379 -3.5452  1.0120 -0.1368
  441SOL    HW2 1368   0.910   0.938   1.283  0.5535  1.2478  1.8130
  442SOL     OW 1369   0.283   1.871   1.899  0.7921 -0.4763 -0.1253
  442SOL    HW1 1370   0.195   1.815   1.907 -1.0313 -3.4034 -4.4054
  442SOL    HW2 1371   0.265   1.923   1.977  1.3845  0.7273  1.6631
  443SOL     OW 1372   0.647   0.612   0.290 -0.0315  0.0617 -0.7179
  443SOL    HW1 1373   0.556   0.598   0.335  1.4129  0.3879 -1.3471
  443SOL    HW2 1374   0.644   0.709   0.286  1.4073  1.5537  1.0043
  444SOL     OW 1375   0.775   1.493   1.632  0.1982  0.0738 -0.1731
  444SOL    HW1 1376   0.734   1.577   1.661 -0.5544  2.2406 -2.0524
  444SOL    HW2 1377   0.725   1.478   1.550 -0.2203 -1.3284 -0.3601
  445SOL     OW 1378   2.330   2.984   0.639 -0.3362 -0.0917 -0.1246
  445SOL    HW1 1379   2.289   3.017   0.553  0.2158  2.7841 -1.7891
  445SOL    HW2 1380   2.326   3.068   0.690  0.3004  2.9527  0.8021
  446SOL     OW 1381   1.811   0.461   1.082  0.0327  0.2350 -0.1506
  446SOL    HW1 1382   1.742   0.417   1.028  0.2581 -4.2130 -0.4326
  446SOL    HW2 1383   1.839   0.528   1.019  2.7629 -0.7936  1.1413
  447SOL     OW 1384   2.249   1.450   0.543  0.4638  0.5844  0.7645
  447SOL    HW1 1385   2.257   1.552   0.530 -0.3920  1.6568  0.5901
  447SOL    HW2 1386   2.347   1.431   0.566  0.1953 -4.0868  3.8074
  448SOL     OW 1387   0.519   2.299   0.116 -0.3662 -0.9568  0.5149
  448SOL    HW1 1388   0.449   2.335   0.062  1.8194 -2.3351 -1.3451
  448SOL    HW2 1389   0.554   2.233   0.050 -3.9576 -2.2535 -0.1141
  449SOL     OW 1390   0.691   1.257   2.846  0.2948 -0.0597 -0.1303
  449SOL    HW1 1391   0.731   1.236   2.756  2.1850 -1.5317  0.1071
  449SOL    HW2 1392   0.601   1.280   2.811  1.4842 -1.2983 -0.2667
  450SOL     OW 1393   2.228   1.776   2.301 -0.0588 -0.3982  0.2059
  450SOL    HW1 1394   2.279   1.701   2.316 -0.6689  0.6244 -0.9790
  450SOL    HW2 1395   2.282   1.813   2.228 -1.1759 -0.5471 -1.5445
  451SOL     OW 1396   1.276   2.027   1.106  0.9229  0.1292 -0.0015
  451SOL    HW1 1397   1.247   2.106   1.156  0.1866  0.5792  3.3432
  451SOL    HW2 1398   1.287   1.955   1.164  2.4006  1.1766  1.7483
  452SOL     OW 1399   1.880   0.276   2.896  0.0985 -0.4850  0.3490
  452SOL    HW1 1400   1.875   0.238   2.986 -0.4699 -1.6403 -2.1589
  452SOL    HW2 1401   1.786   0.250   2.868 -3.3220 -0.7195 -0.6702
  453SOL     OW 1402   2.391   1.044   1.689 -0.2846  0.1292 -0.0435
  453SOL    HW1 1403   2.367   0.980   1.618  4.4363  1.2544  0.4364
  453SOL    HW2 1404   2.463   0.997   1.728 -1.8246  1.1952 -0.6865
  454SOL     OW 1405   0.506   0.366   1.170  0.9069  0.5005 -0.3431
  454SOL    HW1 1406   0.517   0.418   1.257 -1.5110 -0.3356  0.5369
  454SOL    HW2 1407   0.421   0.324   1.197  0.2863  1.6222  0.6198
  455SOL     OW 1408   2.471   1.905   0.011  0.4727  0.6889 -0.0153
  455SOL    HW1 1409   2.520   1.896   0.093  2.1152  0.8853 -0.7414
  455SOL    HW2 1410   2.381   1.886   0.047 -0.2953 -2.0613 -1.4208
  456SOL     OW 1411   1.858   0.451   1.603 -0.5725  0.1260 -0.0684
  456SOL    HW1 1412   1.898   0.430   1.513 -1.0246 -1.2667  2.4349
  456SOL    HW2 1413   1.765   0.464   1.574 -0.6005 -0.2888 -1.8601
  457SOL     OW 1414   1.510   2.022   0.766  0.6462  0.4850 -0.5807
  457SOL    HW1 1415   1.600   2.014   0.738 -0.5485  1.0123 -1.0284
  457SOL    HW2 1416   1.518   1.948   0.830 -0.2785  0.6711  1.8235
  458SOL     OW 1417   1.115   1.475   1.292  0.8074  0.3955  0.1666
  458SOL    HW1 1418   1.081   1.436   1.378 -3.3021 -2.4984 -0.6830
  458SOL    HW2 1419   1.025   1.506   1.258  0.2080  2.7556 -4.4536
  459SOL     OW 1420   1.421   2.849   2.602 -0.1171  0.2957 -0.1713
  459SOL    HW1 1421   1.484   2.817   2.668 -1.0214  1.1515 -0.7099
  459SOL    HW2 1422   1.329   2.843   2.645 -0.2361 -3.1568 -0.7113
  460SOL     OW 1423   2.473   0.784   2.469 -0.0461 -0.1276  0.2502
  460SOL    HW1 1424   2.556   0.813   2.502  0.9944 -0.9265  2.7647
  460SOL    HW2 1425   2.486   0.771   2.374  5.6078  0.4833 -1.2406
  461SOL     OW 1426   2.751   1.351   1.143  0.2417 -0.0206 -0.2830
  461SOL    HW1 1427   2.743   1.258   1.166  1.5286 -1.8760  3.6155
  461SOL    HW2 1428   2.675   1.367   1.085 -0.4563  2.3777  1.9408
  462SOL     OW 1429   1.090   0.008   0.884  0.1258  0.1187 -0.3345
  462SOL    HW1 1430   0.994  -0.005   0.863 -1.8042 -0.1961  1.8760
  462SOL    HW2 1431   1.127  -0.047   0.816 -0.4686 -0.1191  2.5036
  463SOL     OW 1432   0.032   2.527   1.929  0.5232 -0.1942  0.4584
  463SOL    HW1 1433   0.006   2.528   1.834 -1.0524  0.1592  0.0486
  463SOL    HW2 1434  -0.044   2.570   1.965 -0.2431  0.5303 -0.8350
  464SOL     OW 1435   2.456   1.063   2.636  0.9094 -0.1010 -0.2770
  464SOL    HW1 1436   2.549   1.051   2.606 -0.8061  3.3859 -3.3415
  464SOL    HW2 1437   2.459   1.013   2.721 -2.2341 -1.9628  1.0453
  465SOL     OW 1438   1.527   1.380   1.334  0.7917 -0.7752  0.1464
  465SOL    HW1 1439   1.610   1.339   1.294 -0.9719  0.7096  1.4883
  465SOL    HW2 1440   1.487   1.312   1.395 -0.7183 -0.7510 -1.0894
  466SOL     OW 1441   0.244   0.531   1.010 -0.0861 -0.7897  0.3007
  466SOL    HW1 1442   0.309   0.609   1.015  2.3087 -0.8281 -2.3960
  466SOL    HW2 1443   0.226   0.527   1.108 -0.5418  2.2103 -1.8212
  467SOL     OW 1444   1.215   1.688   1.458 -0.3132  0.2766 -0.7961
  467SOL    HW1 1445   1.165   1.685   1.536  1.7665 -0.1117 -2.5667
  467SOL    HW2 1446   1.187   1.602   1.419 -2.1060  1.2041 -2.4682
  468SOL     OW 1447   2.026   2.592   2.215 -0.4666  0.1498 -0.6936
  468SOL    HW1 1448   2.027   2.500   2.182  0.6476  0.3415  1.2101
  468SOL    HW2 1449   1.976   2.642   2.140 -2.8045 -0.2546 -0.8179
  469SOL     OW 1450   0.769   2.478   2.317 -0.2087 -0.0355  0.6425
  469SOL    HW1 1451   0.747   2.413   2.245  2.1978  1.3137  1.4099
  469SOL    HW2 1452   0.867   2.482   2.327 -0.9021 -2.6349 -0.2316
  470SOL     OW 1453   1.024   2.581   0.520 -0.5701 -0.9614 -1.5291
  470SOL    HW1 1454   1.113   2.636   0.522 -1.4195  1.4993  1.0320
  470SOL    HW2 1455   0.999   2.589   0.428 -2.3018 -0.2584  2.7851
  471SOL     OW 1456   1.371   1.708   0.873 -0.4587  0.4131  0.7372
  471SOL    HW1 1457   1.446   1.739   0.931  1.1690 -0.5034 -0.5868
  471SOL    HW2 1458   1.421   1.631   0.835  0.2089  1.0327  2.2550
  472SOL     OW 1459   2.096   2.977   0.166  0.3442 -0.8628  1.1252
  472SOL    HW1 1460   2.111   2.886   0.128  1.2624 -0.7722 -0.4923
  472SOL    HW2 1461   1.999   2.971   0.176 -0.1106 -0.1644  1.7072
  473SOL     OW 1462   1.379   2.794   1.568 -0.3141 -0.0762  0.9144
  473SOL    HW1 1463   1.360   2.711   1.515 -1.0581  1.9460  1.3631
  473SOL    HW2 1464   1.396   2.749   1.653  1.0249 -0.5113  3.5720
  474SOL     OW 1465   1.584   1.854   0.115  0.3206  0.3009 -0.2771
  474SOL    HW1 1466   1.667   1.815   0.150  1.8915  1.4094 -0.5185
  474SOL    HW2 1467   1.624   1.933   0.091 -3.8486 -1.4715 -0.1502
  475SOL     OW 1468   0.832   0.958   2.793 -0.0943  0.2579  0.3400
  475SOL    HW1 1469   0.925   0.954   2.834 -1.5295  1.6992  1.6584
  475SOL    HW2 1470   0.831   1.035   2.742  2.0664  1.7736  0.4120
  476SOL     OW 1471   1.023   1.028   1.554 -0.1153 -0.6689 -0.0105
  476SOL    HW1 1472   1.103   0.981   1.541  0.9255 -0.4126 -3.2976
  476SOL    HW2 1473   1.026   1.044   1.653  0.5622 -0.1769  4.5114
  477SOL     OW 1474   1.321   0.834   1.158  0.3411 -0.7389 -0.0052
  477SOL    HW1 1475   1.382   0.869   1.090 -0.7795 -0.6293  0.9081
  477SOL    HW2 1476   1.295   0.917   1.190 -0.5489  1.9138 -1.1667
  478SOL     OW 1477   2.984   1.270   1.652 -0.4232 -0.3153  0.0874
  478SOL    HW1 1478   2.957   1.224   1.566  2.4380 -0.7011  1.2010
  478SOL    HW2 1479   2.996   1.357   1.612  1.2811  1.1053  1.3606
  479SOL     OW 1480   2.562   0.932   1.121 -0.6810  0.1110  0.0672
  479SOL    HW1 1481   2.665   0.943   1.145  2.8099 -0.3184  1.0140
  479SOL    HW2 1482   2.544   0.886   1.197  1.1523  1.0344 -0.2993
  480SOL     OW 1483   0.615   0.598   1.618 -0.2337  0.4249 -0.0875
  480SOL    HW1 1484   0.603   0.658   1.703  1.9693 -1.1246  1.1018
  480SOL    HW2 1485   0.523   0.606   1.587 -1.3847  0.6853 -2.2121
  481SOL     OW 1486   0.524   0.885   0.261  0.0158 -1.0987  0.0455
  481SOL    HW1 1487   0.573   0.948   0.213 -1.2621  1.5422 -2.5109
  481SOL    HW2 1488   0.470   0.940   0.323 -0.6624  1.1752  0.2742
  482SOL     OW 1489   2.337   1.321   1.511  0.4345  0.0258 -0.0224
  482SOL    HW1 1490   2.376   1.374   1.590  0.7756  1.2519  1.9738
  482SOL    HW2 1491   2.241   1.340   1.525 -1.9155 -1.0829 -0.1953
  483SOL     OW 1492   1.715   2.190   2.323 -0.3646 -0.2449 -0.0232
  483SOL    HW1 1493   1.636   2.195   2.377  0.7036  0.0115 -1.6168
  483SOL    HW2 1494   1.768   2.153   2.391  0.6360  2.0357  0.3948
  484SOL     OW 1495   0.142   1.117   2.870 -0.8925 -0.0477 -0.4620
  484SOL    HW1 1496   0.132   1.092   2.776  1.3012 -0.4142  1.2382
  484SOL    HW2 1497   0.070   1.172   2.883  0.1897 -1.8212  4.0151
  485SOL     OW 1498   1.157   0.418   1.904 -0.1469  0.1147 -0.6220
  485SOL    HW1 1499   1.143   0.462   1.987  1.2232 -1.1810  3.3598
  485SOL    HW2 1500   1.157   0.330   1.933  1.5685 -1.2796 -2.9211
  486SOL     OW 1501   1.565   0.270   0.919  0.2656  0.1820 -0.0003
  486SOL    HW1 1502   1.605   0.248   0.838  5.0204  0.6502 -0.8012
  486SOL    HW2 1503   1.468   0.286   0.893 -2.0666  1.1764 -2.6234
  487SOL     OW 1504   2.371   2.124   0.415  0.2789 -0.7257  0.3734
  487SOL    HW1 1505   2.299   2.129   0.358  1.4442  0.2914  1.4584
  487SOL    HW2 1506   2.376   2.027   0.419 -0.3873  0.2866  0.4049
  488SOL     OW 1507   1.632   2.412   0.439 -0.7963 -0.3534 -0.4964
  488SOL    HW1 1508   1.543   2.388   0.462 -0.1568  0.6943  0.3918
  488SOL    HW2 1509   1.612   2.483   0.371  3.6506  0.6763 -4.6839
  489SOL     OW 1510   2.527   0.428   2.370 -0.0339 -0.1376  0.6718
  489SOL    HW1 1511   2.484   0.517   2.379 -0.2141  1.3628 -0.5424
  489SOL    HW2 1512   2.615   0.458   2.371 -0.1119 -0.1076 -2.8167
  490SOL     OW 1513   0.644   1.315   2.218 -0.0987 -0.3180  0.6709
  490SOL    HW1 1514   0.655   1.296   2.316  1.0000  1.2329 -0.6886
  490SOL    HW2 1515   0.563   1.263   2.207 -1.4671  0.1394  1.4251
  491SOL     OW 1516   2.711   2.516   0.348 -0.0442  0.4645 -0.3456
  491SOL    HW1 1517   2.746   2.499   0.435 -1.1600  3.0699 -5.8293
  491SOL    HW2 1518   2.614   2.499   0.358 -3.8757  0.2857  0.3572
  492SOL     OW 1519   1.732   2.962   1.689 -0.3888  0.5423 -0.1693
  492SOL    HW1 1520   1.823   3.001   1.695  0.2986 -2.8611  2.3805
  492SOL    HW2 1521   1.676   2.990   1.610 -1.7869  0.8443 -0.8626
  493SOL     OW 1522   0.084   0.454   0.274 -0.2259  0.1245  0.1593
  493SOL    HW1 1523  -0.010   0.459   0.263  2.2410 -1.3654 -0.8736
  493SOL    HW2 1524   0.117   0.390   0.209  1.8577  1.4194 -0.5217
  494SOL     OW 1525   0.978   0.874   2.169  0.6927  0.3793  0.0855
  494SOL    HW1 1526   0.936   0.791   2.185 -1.0058 -0.9456  1.5467
  494SOL    HW2 1527   0.933   0.936   2.234 -0.7249 -1.5975 -1.7662
  495SOL     OW 1528   0.866   0.472   1.215  0.4597  0.0855  0.0489
  495SOL    HW1 1529   0.895   0.388   1.181 -1.5112  0.1869  0.0126
  495SOL    HW2 1530   0.767   0.470   1.212 -2.4698  0.1714 -1.1156
  496SOL     OW 1531   0.965   2.929   2.500 -0.5677 -0.1068  0.2810
  496SOL    HW1 1532   0.928   2.838   2.486 -1.9749  0.3905 -0.1010
  496SOL    HW2 1533   1.030   2.929   2.428  0.8403 -0.6169 -1.8478
  497SOL     OW 1534   1.644   0.168   2.858  0.4974 -0.6877 -0.0312
  497SOL    HW1 1535   1.624   0.136   2.948  0.8133  1.6807 -3.6907
  497SOL    HW2 1536   1.558   0.135   2.828  0.8932  2.2249  1.3072
  498SOL     OW 1537   0.862   1.045   1.804  0.0707 -0.4753  0.1782
  498SOL    HW1 1538   0.822   1.034   1.889  1.4780 -1.9182  1.9053
  498SOL    HW2 1539   0.900   1.137   1.815 -2.8166  1.3589  1.1098
  499SOL     OW 1540   1.982   2.413   1.973 -0.2315 -0.2404 -0.8935
  499SOL    HW1 1541   1.899   2.384   2.000 -0.2243  1.4867  3.5863
  499SOL    HW2 1542   1.963   2.491   1.929  2.1889 -2.3021  4.6928
  500SOL     OW 1543   0.645   0.576   2.892 -0.5875  0.5229 -0.1112
  500SOL    HW1 1544   0.609   0.665   2.857 -2.2006 -1.6552  0.0871
  500SOL    HW2 1545   0.732   0.567   2.843 -0.9164 -1.7150 -1.0929
  501SOL     OW 1546   0.081   2.978   0.561  0.2979 -0.0728 -0.2568
  501SOL    HW1 1547   0.145   2.909   0.554 -1.9540 -2.7261  0.4288
  501SOL    HW2 1548   0.119   3.056   0.519 -1.1738 -0.8233  0.3006
  502SOL     OW 1549   1.068   1.606   1.662 -0.5083  0.1084  0.7474
  502SOL    HW1 1550   1.124   1.606   1.744 -3.0729 -0.8638 -0.6155
  502SOL    HW2 1551   1.019   1.519   1.663 -0.0404 -1.3844  1.7800
  503SOL     OW 1552   0.026   0.287   2.204  0.3520  1.6817  0.2102
  503SOL    HW1 1553   0.091   0.216   2.215 -1.1226 -0.8969  1.1721
  503SOL    HW2 1554   0.068   0.366   2.227 -0.2316  2.6587 -0.2427
  504SOL     OW 1555   0.806   0.817   2.539 -0.5526  0.7095 -0.0959
  504SOL    HW1 1556   0.788   0.806   2.630 -3.6363  2.4838  1.1403
  504SOL    HW2 1557   0.741   0.890   2.532 -0.6019 -2.0174  1.6195
  505SOL     OW 1558   0.431   1.609   0.219  0.1656  0.0981  1.1738
  505SOL    HW1 1559   0.434   1.544   0.290  1.3222 -0.0771  0.1866
  505SOL    HW2 1560   0.526   1.641   0.218 -4.4501 -0.7806  0.9056
  506SOL     OW 1561   2.059   2.261   1.259 -0.2660  0.6291 -0.5356
  506SOL    HW1 1562   1.980   2.225   1.210 -0.3112  0.0465  0.7540
  506SOL    HW2 1563   2.133   2.211   1.223  2.1203 -0.6985  1.9639
  507SOL     OW 1564   0.728   0.253   1.058 -0.4031 -0.3316  0.0925
  507SOL    HW1 1565   0.648   0.314   1.052 -1.3019  1.5877  4.6335
  507SOL    HW2 1566   0.697   0.164   1.080 -0.6542 -0.2526  2.5716
  508SOL     OW 1567   0.813   0.142   2.247 -1.2712 -0.1685 -0.2568
  508SOL    HW1 1568   0.880   0.212   2.252 -1.4227  2.6032  1.6963
  508SOL    HW2 1569   0.799   0.132   2.153  0.2038 -0.3585 -0.4424
  509SOL     OW 1570   2.253   1.781   0.127  0.4461 -0.4927  0.0053
  509SOL    HW1 1571   2.251   1.757   0.029 -3.2347 -1.9010  3.2251
  509SOL    HW2 1572   2.211   1.702   0.164 -0.4204  0.6705 -0.2175
  510SOL     OW 1573   0.458   1.363   2.690  0.3882  0.5834  0.5179
  510SOL    HW1 1574   0.384   1.413   2.722  3.4219  1.2110 -0.0534
  510SOL    HW2 1575   0.449   1.384   2.593  0.8677  1.3562 -2.2124
  511SOL     OW 1576   2.568   2.299   1.918 -0.1634  0.2602  0.4218
  511SOL    HW1 1577   2.534   2.211   1.906 -1.3190  2.7627 -0.4254
  511SOL    HW2 1578   2.529   2.340   1.836  2.4651 -3.6521 -0.7100
  512SOL     OW 1579   1.725   2.824   1.914  0.4510 -0.5772 -0.1648
  512SOL    HW1 1580   1.736   2.732   1.885  2.7833 -0.4988  0.7526
  512SOL    HW2 1581   1.710   2.869   1.830 -0.4126 -1.7509  4.0930
  513SOL     OW 1582   2.808   0.979   1.148 -0.2284  0.4361  0.3550
  513SOL    HW1 1583   2.851   0.910   1.206  1.0434 -1.0458  1.9488
  513SOL    HW2 1584   2.885   1.010   1.096 -0.1285  4.0619  1.8906
  514SOL     OW 1585   1.699   0.223   1.362  1.1256  0.5516 -0.3031
  514SOL    HW1 1586   1.640   0.156   1.387 -1.7410  3.6186  0.8971
  514SOL    HW2 1587   1.641   0.247   1.281 -1.5873 -2.8805 -3.2302
  515SOL     OW 1588   0.103   0.174   1.582 -0.8258 -0.2875 -0.5138
  515SOL    HW1 1589   0.028   0.194   1.529 -0.4853 -0.4928  1.8437
  515SOL    HW2 1590   0.085   0.219   1.666  2.3257 -0.5036  1.4675
  516SOL     OW 1591   2.679   0.876   2.836 -0.7557  0.3894 -0.2523
  516SOL    HW1 1592   2.581   0.894   2.853  0.7592 -1.7690  0.5552
  516SOL    HW2 1593   2.681   0.786   2.884  1.3090 -0.5704 -3.5081
  517SOL     OW 1594   1.839   0.564   2.051 -0.2909  0.0544  0.1251
  517SOL    HW1 1595   1.767   0.631   2.038  1.5696  2.7555  0.1376
  517SOL    HW2 1596   1.807   0.514   2.127  3.6517 -0.8346 -0.6871
  518SOL     OW 1597   0.750   1.410   0.174 -0.3504  0.5226  0.1226
  518SOL    HW1 1598   0.809   1.410   0.246 -0.3298 -1.7746 -0.4448
  518SOL    HW2 1599   0.686   1.340   0.200 -3.4859 -3.2686  1.3970
  519SOL     OW 1600   1.920   1.329   2.092 -0.0910 -0.7540  0.6962
  519SOL    HW1 1601   1.893   1.392   2.023  2.5115  2.2893  1.7768
  519SOL    HW2 1602   1.972   1.257   2.049 -0.5724 -0.7154 -1.5416
  520SOL     OW 1603   0.207   0.462   1.291 -0.0543 -0.0682  0.1653
  520SOL    HW1 1604   0.108   0.482   1.297 -1.3759  0.4753 -2.4012
  520SOL    HW2 1605   0.209   0.361   1.279  0.2398 -0.6706 -2.6824
  521SOL     OW 1606   2.807   1.183   2.757 -0.1820 -0.7886  0.4520
  521SOL    HW1 1607   2.836   1.088   2.753  4.2036  0.9024  0.0080
  521SOL    HW2 1608   2.711   1.173   2.778 -1.7907 -1.3869  0.0394
  522SOL     OW 1609   2.679   1.724   0.295 -0.2926  0.3332  0.7010
  522SOL    HW1 1610   2.749   1.656   0.312 -2.5134  0.5110 -1.5324
  522SOL    HW2 1611   2.726   1.779   0.230 -1.8733 -4.1689  1.0044
  523SOL     OW 1612   2.167   0.611   0.801 -0.1258  0.5068 -0.0878
  523SOL    HW1 1613   2.144   0.538   0.865  0.3312  1.0959  0.4633
  523SOL    HW2 1614   2.237   0.558   0.757 -0.6066 -1.7704  1.7467
  524SOL     OW 1615   2.834   0.632   2.067  0.3786 -0.1127 -0.5002
  524SOL    HW1 1616   2.772   0.558   2.074  1.7525 -0.2890 -1.0705
  524SOL    HW2 1617   2.777   0.712   2.056  0.1937  4.5929 -0.0566
  525SOL     OW 1618   0.081   1.449   0.918 -0.0918  0.1863 -0.1169
  525SOL    HW1 1619   0.157   1.508   0.902 -0.6775  0.1051 -0.3062
  525SOL    HW2 1620   0.031   1.517   0.866 -0.7328  0.7251  2.4675
  526SOL     OW 1621   1.071   0.988   2.920  0.4824  0.2211 -0.6799
  526SOL    HW1 1622   1.108   1.081   2.919  0.1326 -4.2345 -0.7557
  526SOL    HW2 1623   1.147   0.930   2.939  0.0417 -1.5408  1.0070
  527SOL     OW 1624   0.247   2.524   2.198  0.0032 -0.2631 -0.2256
  527SOL    HW1 1625   0.276   2.475   2.281 -1.7742 -1.7174 -1.1884
  527SOL    HW2 1626   0.167   2.463   2.186  0.4978  1.0402 -1.3228
  528SOL     OW 1627   2.774   2.353   0.127 -0.5517 -0.3176 -0.2533
  528SOL    HW1 1628   2.752   2.406   0.208 -0.7631  2.9957  0.9611
  528SOL    HW2 1629   2.710   2.279   0.123  0.0986  3.0879  1.6605
  529SOL     OW 1630   2.198   0.083   0.414 -0.2414  0.5190 -0.4949
  529SOL    HW1 1631   2.274   0.132   0.369  1.4762  3.3956  3.1681
  529SOL    HW2 1632   2.152   0.052   0.333 -0.9976 -1.8306 -0.3092
  530SOL     OW 1633   2.349   0.386   2.626  0.9780  0.1634  0.3987
  530SOL    HW1 1634   2.376   0.397   2.532  0.0322 -1.8520 -0.4643
  530SOL    HW2 1635   2.261   0.428   2.614 -1.2536 -1.3745  1.3132
  531SOL     OW 1636   0.507   1.238   0.125  0.2959 -0.5062  0.2392
  531SOL    HW1 1637   0.590   1.201   0.152  1.3627 -3.8617  1.5689
  531SOL    HW2 1638   0.484   1.164   0.060  0.5151 -3.7293  2.2343
  532SOL     OW 1639   1.745   2.746   1.323  0.3304 -0.2993 -0.2552
  532SOL    HW1 1640   1.653   2.755   1.303  3.8066  0.0135 -0.1837
  532SOL    HW2 1641   1.750   2.665   1.373  1.4945 -3.7975  1.7597
  533SOL     OW 1642   0.505   1.069   1.031  1.0524 -0.3509  0.3661
  533SOL    HW1 1643   0.535   0.982   0.998 -0.7140  1.3908  3.3596
  533SOL    HW2 1644   0.451   1.103   0.959  0.2521 -0.5146 -4.2791
  534SOL     OW 1645   1.537   0.878   0.923 -0.4462  0.1328 -0.3409
  534SOL    HW1 1646   1.545   0.790   0.890  2.3180 -0.1789  0.5134
  534SOL    HW2 1647   1.592   0.929   0.849  2.4990  2.3619 -0.0056
  535SOL     OW 1648   0.301   0.671   1.772  0.7740 -0.1292  0.2049
  535SOL    HW1 1649   0.218   0.656   1.829 -1.4124 -2.7680  1.6809
  535SOL    HW2 1650   0.369   0.690   1.844  0.5899  0.1513  4.3289
  536SOL     OW 1651   2.144   1.911   0.370  0.3873 -0.2037 -0.9861
  536SOL    HW1 1652   2.136   1.888   0.274 -3.0117  2.0266 -1.4047
  536SOL    HW2 1653   2.052   1.936   0.385  1.4271  1.5689 -1.9584
  537SOL     OW 1654   0.536   1.033   1.876  0.3736 -1.0223  0.2733
  537SOL    HW1 1655   0.449   1.000   1.901 -3.8461  0.5208 -2.4151
  537SOL    HW2 1656   0.549   1.099   1.948  0.2641  1.3455 -1.2520
  538SOL     OW 1657   0.385   0.165   1.813  0.1352 -0.4054 -0.2270
  538SOL    HW1 1658   0.368   0.070   1.794 -0.4572  0.4981  0.3055
  538SOL    HW2 1659   0.326   0.212   1.746 -0.8414 -2.2587 -1.5904
  539SOL     OW 1660   2.457   0.681   0.987  0.2863  0.3122  0.1237
  539SOL    HW1 1661   2.499   0.725   1.061  0.5787 -0.6664 -3.0032
  539SOL    HW2 1662   2.493   0.729   0.909  0.7588  1.1813  0.1607
  540SOL     OW 1663   0.266   0.373   2.059 -0.3776 -0.1857 -0.3390
  540SOL    HW1 1664   0.173   0.343   2.044 -0.4426 -0.9938  1.8084
  540SOL    HW2 1665   0.319   0.293   2.038  1.3913  1.4271 -1.5482
  541SOL     OW 1666   1.205   2.625   2.303  0.4172 -0.1189  0.0638
  541SOL    HW1 1667   1.301   2.623   2.316 -1.7507 -1.0945  1.7715
  541SOL    HW2 1668   1.198   2.719   2.315  0.1531  0.3483  1.1025
  542SOL     OW 1669   2.350   0.452   1.056  0.1167 -0.1997 -0.2848
  542SOL    HW1 1670   2.256   0.445   1.028  0.7553 -0.1663 -1.6956
  542SOL    HW2 1671   2.371   0.537   1.026  2.1124 -3.6155 -1.7047
  543SOL     OW 1672   0.642   2.425   1.553  0.3252  0.5523  0.0459
  543SOL    HW1 1673   0.604   2.353   1.505 -5.1196  0.3132  2.4486
  543SOL    HW2 1674   0.608   2.407   1.647 -3.9289  1.5653  0.0877
  544SOL     OW 1675   2.417   2.432   1.719  0.2874  0.1113  0.9814
  544SOL    HW1 1676   2.416   2.525   1.694 -2.0327 -1.8877 -0.3584
  544SOL    HW2 1677   2.346   2.398   1.669  1.6562 -1.2285 -1.5477
  545SOL     OW 1678   0.552   2.091   0.856  0.5509  0.1292  0.3240
  545SOL    HW1 1679   0.606   2.026   0.893 -0.5265  2.7426 -0.5746
  545SOL    HW2 1680   0.481   2.075   0.929  1.0396  0.4869  0.2290
  546SOL     OW 1681   0.570   2.506   0.596 -0.3497  0.3860  0.0364
  546SOL    HW1 1682   0.516   2.474   0.514 -1.2832 -0.0349  0.1458
  546SOL    HW2 1683   0.547   2.441   0.664 -1.2939 -2.3177  0.5971
  547SOL     OW 1684   2.221   2.646   1.929  0.0960  0.2467  0.0216
  547SOL    HW1 1685   2.226   2.649   2.025  0.1438  0.7930 -1.6826
  547SOL    HW2 1686   2.127   2.672   1.911  0.3145  2.5445  0.1095
  548SOL     OW 1687   1.093   1.914   0.264  0.3258  0.1856  0.4580
  548SOL    HW1 1688   1.059   1.849   0.323  0.2813 -0.4786 -0.0459
  548SOL    HW2 1689   1.117   1.995   0.316  0.4262  2.2453 -0.9008
  549SOL     OW 1690   2.800   2.330   1.073  0.7837 -0.0915  0.6078
  549SOL    HW1 1691   2.707   2.305   1.082 -0.1074 -0.7103  1.7884
  549SOL    HW2 1692   2.797   2.370   0.983 -2.4567  2.8175  1.0581
  550SOL     OW 1693   2.831   2.944   2.697 -1.0723  0.3210 -0.0315
  550SOL    HW1 1694   2.797   2.876   2.758  1.0833  1.3364  1.9436
  550SOL    HW2 1695   2.894   2.887   2.643  0.9464  2.6602  1.8885
  551SOL     OW 1696   2.537   1.973   2.351 -0.7490 -0.0543  0.4576
  551SOL    HW1 1697   2.526   1.876   2.371  2.6974 -0.5593  0.6138
  551SOL    HW2 1698   2.475   1.992   2.275  3.6895  2.6569  0.7895
  552SOL     OW 1699   0.064   2.449   1.293 -0.3503 -0.7781  0.9059
  552SOL    HW1 1700   0.025   2.469   1.204  1.8939 -1.1824  3.1506
  552SOL    HW2 1701   0.156   2.423   1.269  0.9284  4.0386  0.1571
  553SOL     OW 1702   1.939   1.342   1.544 -0.2221  0.4393  0.1990
  553SOL    HW1 1703   1.985   1.262   1.586  1.0203 -0.8672 -2.1949
  553SOL    HW2 1704   1.853   1.331   1.590 -0.8442  0.2131 -3.4470
  554SOL     OW 1705   0.277   0.928   1.892  0.0192  0.3061 -0.3240
  554SOL    HW1 1706   0.227   0.863   1.838 -1.6218 -1.6325 -2.9678
  554SOL    HW2 1707   0.257   1.001   1.833  4.7597  0.4511 -3.0733
  555SOL     OW 1708   2.006   1.078   1.088 -0.3186 -0.4333  0.1427
  555SOL    HW1 1709   2.006   0.989   1.047 -0.0156 -1.3339  1.4501
  555SOL    HW2 1710   2.079   1.058   1.146 -0.4659 -0.1598 -2.2146
  556SOL     OW 1711   1.589   1.858   0.998 -0.8601  0.5487 -0.9748
  556SOL    HW1 1712   1.618   1.789   1.061  2.5770  0.6787  1.6690
  556SOL    HW2 1713   1.619   1.934   1.049  0.4287 -0.2117 -0.6031
  557SOL     OW 1714   1.938   0.995   1.892  0.7782  0.7044 -0.0700
  557SOL    HW1 1715   1.996   1.058   1.942 -3.9869 -0.4042 -0.1410
  557SOL    HW2 1716   2.018   0.933   1.868  1.3288 -0.5008 -1.0238
  558SOL     OW 1717   0.551   2.043   0.302  0.1272  0.3227  0.1302
  558SOL    HW1 1718   0.468   2.065   0.351 -2.8045 -0.5896  1.8815
  558SOL    HW2 1719   0.612   2.122   0.325  0.1237  1.3286 -1.9806
  559SOL     OW 1720   0.391   2.185   1.449  0.1655  0.1127 -0.2608
  559SOL    HW1 1721   0.340   2.102   1.453  1.7623 -0.6034 -2.0676
  559SOL    HW2 1722   0.477   2.142   1.416 -0.3273  0.0415 -1.4945
  560SOL     OW 1723   0.391   2.640   2.000 -0.6360  0.5778 -0.0786
  560SOL    HW1 1724   0.473   2.600   2.048 -2.8866 -0.0864 -1.2598
  560SOL    HW2 1725   0.318   2.622   2.063 -0.9706 -1.0851  4.1057
  561SOL     OW 1726   0.329   0.110   1.488 -0.1466 -0.5221  0.8442
  561SOL    HW1 1727   0.246   0.151   1.512  1.0028  1.5645 -1.9080
  561SOL    HW2 1728   0.331   0.031   1.550  1.9036 -1.8833  2.4189
  562SOL     OW 1729   0.448   1.583   0.587 -0.1686  0.0547 -0.3199
  562SOL    HW1 1730   0.536   1.601   0.613  1.3150 -3.1098  0.2855
  562SOL    HW2 1731   0.478   1.508   0.530  1.5159  2.6145 -0.7079
  563SOL     OW 1732   1.319   2.220   0.810 -0.8099  0.6111  0.3943
  563SOL    HW1 1733   1.305   2.230   0.712 -0.0013  0.3060 -0.3865
  563SOL    HW2 1734   1.404   2.174   0.815 -0.5626  1.5636  2.0578
  564SOL     OW 1735   1.664   1.570   1.811  0.7134  0.0632 -0.4252
  564SOL    HW1 1736   1.687   1.487   1.770 -1.6846  1.4059  0.4360
  564SOL    HW2 1737   1.754   1.611   1.832  2.4557 -0.6315 -2.0724
  565SOL     OW 1738   2.933   0.952   1.689 -0.8059 -0.1071  0.2282
  565SOL    HW1 1739   2.910   1.013   1.615 -1.2456 -1.0267 -4.0155
  565SOL    HW2 1740   3.033   0.943   1.687  0.8605 -3.5736  1.6695
  566SOL     OW 1741   0.326   1.482   1.337  0.1112 -0.5649  0.8318
  566SOL    HW1 1742   0.352   1.452   1.247  1.9108  0.4725  0.8936
  566SOL    HW2 1743   0.231   1.466   1.335  1.7904  0.8695  1.7015
  567SOL     OW 1744   2.684   2.648   0.737 -0.0709  0.0688 -0.1899
  567SOL    HW1 1745   2.699   2.711   0.810 -1.0874  0.5718 -0.5579
  567SOL    HW2 1746   2.619   2.697   0.682  3.0683  1.5869  1.0920
  568SOL     OW 1747   2.159   2.026   2.979  0.5732 -0.1433  0.3106
  568SOL    HW1 1748   2.099   2.020   2.902 -2.6241  0.1198  2.7579
  568SOL    HW2 1749   2.110   1.977   3.046  0.3499 -2.2503  2.1686
  569SOL     OW 1750   1.356   0.533   1.498 -0.7834  0.3066 -0.5784
  569SOL    HW1 1751   1.326   0.565   1.579 -1.2146 -2.1707 -0.9033
  569SOL    HW2 1752   1.302   0.585   1.440 -3.1358 -0.6905 -0.6643
  570SOL     OW 1753   1.636   2.531   1.471 -0.7230  0.7333 -0.7737
  570SOL    HW1 1754   1.553   2.576   1.479 -0.2465  1.3148 -1.4344
  570SOL    HW2 1755   1.606   2.442   1.446  5.9353  1.4064  0.0854
  571SOL     OW 1756   2.843   0.376   0.171 -0.2749  0.2534  0.1166
  571SOL    HW1 1757   2.915   0.346   0.110  0.2445  0.1404 -0.3136
  571SOL    HW2 1758   2.782   0.305   0.166 -1.1966 -1.0285  2.2298
  572SOL     OW 1759   1.664   0.779   0.190  0.1141 -0.6255  0.1632
  572SOL    HW1 1760   1.667   0.879   0.181 -2.5664  0.4805 -1.7133
  572SOL    HW2 1761   1.689   0.759   0.094 -0.7421  2.6103  5.2936
  573SOL     OW 1762   2.764   2.917   1.281 -0.5261 -0.3611  0.1875
  573SOL    HW1 1763   2.814   2.833   1.297  1.2603  1.2803 -0.7510
  573SOL    HW2 1764   2.766   2.959   1.368 -1.9921  1.7527 -3.0596
  574SOL     OW 1765   2.317   1.146   0.491 -0.1810 -0.3191 -0.7296
  574SOL    HW1 1766   2.407   1.175   0.470 -2.2666  0.4347  1.7884
  574SOL    HW2 1767   2.332   1.108   0.575 -0.4298 -2.4859 -1.2545
  575SOL     OW 1768   2.164   1.347   2.464  0.3892 -0.0329  0.2714
  575SOL    HW1 1769   2.185   1.307   2.377  0.0848 -0.6530  2.3165
  575SOL    HW2 1770   2.142   1.272   2.522  3.7843 -0.1333 -0.9245
  576SOL     OW 1771   0.940   2.873   0.320  0.1829  0.5781 -0.6924
  576SOL    HW1 1772   0.979   2.937   0.379 -1.7896 -1.0616 -1.4970
  576SOL    HW2 1773   0.880   2.827   0.374 -2.0792 -0.9981  1.4566
  577SOL     OW 1774   0.476   0.270   2.821 -0.0041 -0.0172 -0.5995
  577SOL    HW1 1775   0.480   0.168   2.825  2.2043 -1.8131 -1.0722
  577SOL    HW2 1776   0.538   0.304   2.891 -2.0794  1.3884  1.8547
  578SOL     OW 1777   2.797   1.187   0.084  0.1244  0.3705  0.7726
  578SOL    HW1 1778   2.839   1.162   0.166  3.2706 -1.2895  1.2208
  578SOL    HW2 1779   2.856   1.255   0.050 -0.4696  0.6145 -3.5426
  579SOL     OW 1780   1.241   1.658   0.154  0.2499 -0.5523  0.3103
  579SOL    HW1 1781   1.232   1.632   0.059 -0.1130  2.3774  1.6427
  579SOL    HW2 1782   1.179   1.732   0.157 -3.4246 -2.2360 -2.0555
  580SOL     OW 1783   1.223   0.792   1.490  0.2492  0.1204 -0.1073
  580SOL    HW1 1784   1.140   0.817   1.448 -0.6601 -0.3602 -2.0463
  580SOL    HW2 1785   1.288   0.827   1.423 -0.9218 -0.1877 -0.1793
  581SOL     OW 1786   0.265   1.552   2.855 -0.2450  0.2238 -0.1867
  581SOL    HW1 1787   0.288   1.634   2.912  1.2298  4.9774  0.8693
  581SOL    HW2 1788   0.248   1.481   2.927  0.4169  0.2692  1.3543
  582SOL     OW 1789   2.171   2.678   1.206 -0.1034  0.9762 -0.1686
  582SOL    HW1 1790   2.141   2.754   1.158 -1.5696  0.1080 -1.5604
  582SOL    HW2 1791   2.226   2.733   1.269  1.4811  3.9688 -0.0329
  583SOL     OW 1792   0.879   0.652   0.072  0.4057  0.1843  0.1468
  583SOL    HW1 1793   0.798   0.608   0.108  1.7103  2.9827  0.1837
  583SOL    HW2 1794   0.850   0.663  -0.017  0.0072  1.6029  0.3816
  584SOL     OW 1795   2.589   0.655   2.995 -0.2295  0.3569  0.6268
  584SOL    HW1 1796   2.505   0.706   3.009 -1.7977 -3.8180 -0.9121
  584SOL    HW2 1797   2.551   0.569   2.973 -0.9834  1.8212 -3.4718
  585SOL     OW 1798   1.453   2.857   2.954  0.4440  0.0147  0.1164
  585SOL    HW1 1799   1.524   2.856   2.883 -0.3465  0.7191  1.9738
  585SOL    HW2 1800   1.377   2.817   2.917 -1.3225 -1.6894  0.8394
  586SOL     OW 1801   2.638   0.070   1.514  0.2930  0.0299  1.0981
  586SOL    HW1 1802   2.552   0.104   1.489 -3.1209 -4.7479  0.8676
  586SOL    HW2 1803   2.688   0.149   1.532  1.2564  1.7222 -0.9260
  587SOL     OW 1804   0.932   2.160   1.230  0.3790  0.3851 -0.4001
  587SOL    HW1 1805   0.993   2.171   1.147  1.0627 -1.0115 -1.8991
  587SOL    HW2 1806   0.995   2.107   1.281 -2.6432 -3.2044  1.4261
  588SOL     OW 1807   2.575   2.005   1.978  0.6401 -0.4900 -0.4628
  588SOL    HW1 1808   2.592   1.909   1.992  0.1568  3.4212  1.8295
  588SOL    HW2 1809   2.672   2.037   1.977 -0.8130  0.9421  1.7188
  589SOL     OW 1810   2.707   1.450   2.321 -0.2205 -0.1113 -0.1913
  589SOL    HW1 1811   2.644   1.485   2.380 -3.0547 -1.9960  1.3084
  589SOL    HW2 1812   2.665   1.367   2.297  1.1468  3.0068  2.5452
  590SOL     OW 1813   1.162   2.637   0.758  0.4608 -0.5198 -0.1179
  590SOL    HW1 1814   1.117   2.596   0.683 -2.5535 -3.8888  0.7897
  590SOL    HW2 1815   1.163   2.724   0.725 -0.8144 -3.1789  1.4284
  591SOL     OW 1816   2.014   1.373   0.635  0.1092 -0.1126 -0.0044
  591SOL    HW1 1817   2.036   1.319   0.713  0.4749 -1.9188  0.2606
  591SOL    HW2 1818   2.107   1.389   0.604 -1.5401 -0.1342 -0.6921
  592SOL     OW 1819   0.601   0.377   0.681 -0.9605 -0.6952  0.3596
  592SOL    HW1 1820   0.506   0.358   0.680 -1.0164  2.8349  0.3324
  592SOL    HW2 1821   0.603   0.411   0.768 -1.1064  3.3563  1.3753
  593SOL     OW 1822   1.267   1.617   0.439  0.1632 -0.6447  0.3031
  593SOL    HW1 1823   1.285   1.606   0.345  1.0800  1.7864  0.7246
  593SOL    HW2 1824   1.235   1.709   0.441  1.1295  0.8946 -0.7706
  594SOL     OW 1825   2.295   0.893   0.344  0.4132 -0.1530 -0.3488
  594SOL    HW1 1826   2.301   0.986   0.362  0.7908 -0.4771  1.6731
  594SOL    HW2 1827   2.392   0.856   0.350 -0.7034  2.2508  1.3262
  595SOL     OW 1828   2.111   2.101   0.978 -0.9652 -0.4221 -0.1635
  595SOL    HW1 1829   2.157   2.083   1.060 -2.2991 -3.6598  1.1532
  595SOL    HW2 1830   2.025   2.090   1.014  0.9094 -0.8632 -0.1293
  596SOL     OW 1831   0.891   2.227   0.808 -0.0949  0.7429 -0.3826
  596SOL    HW1 1832   0.831   2.158   0.776  3.4539  0.7828  1.9468
  596SOL    HW2 1833   0.895   2.292   0.731 -1.9498 -1.7295  0.1476
  597SOL     OW 1834   1.639   2.119   1.676 -0.0619 -0.6921 -0.1507
  597SOL    HW1 1835   1.556   2.118   1.620  1.5829 -1.7570  0.0259
  597SOL    HW2 1836   1.643   2.025   1.690  0.0271  3.2164 -0.5146
  598SOL     OW 1837   2.352   2.615   2.277 -0.2220 -0.0158 -0.2391
  598SOL    HW1 1838   2.304   2.668   2.335 -0.4288 -0.8044 -1.1424
  598SOL    HW2 1839   2.380   2.683   2.208 -1.0537 -0.0668  0.9445
  599SOL     OW 1840   1.310   0.100   0.652 -0.4806  0.0234 -0.1952
  599SOL    HW1 1841   1.257   0.022   0.648  0.8749 -1.5653  1.0616
  599SOL    HW2 1842   1.313   0.105   0.556  2.2055 -2.2743 -0.6794
  600SOL     OW 1843   2.883   0.339   0.657  0.3754  0.1897  0.5646
  600SOL    HW1 1844   2.857   0.264   0.716  0.5382 -0.3507  0.0398
  600SOL    HW2 1845   2.980   0.338   0.660  3.5015  0.9141 -1.6626
  601SOL     OW 1846   1.094   2.919   2.223  0.8243  0.3144 -0.9385
  601SOL    HW1 1847   1.097   2.997   2.170  0.1626  1.7572  0.9475
  601SOL    HW2 1848   1.045   2.858   2.176 -1.6622 -3.9257  0.8230
  602SOL     OW 1849   0.223   0.980   0.984  0.4829 -0.2251 -0.3683
  602SOL    HW1 1850   0.124   0.979   0.991  2.8957  0.6959  0.5729
  602SOL    HW2 1851   0.262   1.043   1.045 -0.9825  3.7041  0.4902
  603SOL     OW 1852   0.257   2.864   0.209  0.0597  0.7634 -0.4952
  603SOL    HW1 1853   0.253   2.824   0.300 -2.4115  1.5110  2.9534
  603SOL    HW2 1854   0.185   2.806   0.169  0.1746 -0.0003 -0.6612
  604SOL     OW 1855   2.919   2.891   2.026  0.0581  0.0399 -0.2027
  604SOL    HW1 1856   2.916   2.797   2.027 -0.7450  2.0251 -0.5444
  604SOL    HW2 1857   2.946   2.909   2.120  0.2636 -0.3733 -0.1430
  605SOL     OW 1858   0.909   0.051   1.718  0.5717 -0.4254  0.6600
  605SOL    HW1 1859   0.852  -0.003   1.662 -1.7226  1.6700 -1.6872
  605SOL    HW2 1860   0.897   0.146   1.679 -2.0617 -0.9712  2.5365
  606SOL     OW 1861   1.331   0.827   1.875 -0.2398  0.5266  0.0021
  606SOL    HW1 1862   1.232   0.795   1.887 -1.5910  0.4549 -3.5935
  606SOL    HW2 1863   1.317   0.918   1.864  0.6779  1.0019 -1.0993
  607SOL     OW 1864   2.499   1.889   0.651 -0.3055 -0.1562 -0.2589
  607SOL    HW1 1865   2.560   1.907   0.582  0.8988 -1.4079  0.0742
  607SOL    HW2 1866   2.508   1.981   0.699 -3.7375  1.8826  1.4704
  608SOL     OW 1867   2.747   2.055   1.364 -0.1267  0.2673  0.0566
  608SOL    HW1 1868   2.786   1.983   1.415 -0.8409  1.9160 -0.4198
  608SOL    HW2 1869   2.775   2.026   1.272 -0.9844  0.7803 -1.1764
  609SOL     OW 1870   2.793   0.261   1.614 -0.1757  0.5412 -0.0956
  609SOL    HW1 1871   2.825   0.339   1.665 -0.2806 -4.7543 -2.3306
  609SOL    HW2 1872   2.792   0.190   1.687  2.2674 -1.0896  1.2517
  610SOL     OW 1873   0.586   0.100   2.008 -0.4841 -0.3079 -0.7308
  610SOL    HW1 1874   0.517   0.028   2.017 -0.1089 -1.5202  2.6622
  610SOL    HW2 1875   0.544   0.161   1.946  0.5917  1.2616  2.1872
  611SOL     OW 1876   0.276   0.884   0.720 -1.0598 -0.6212  0.1713
  611SOL    HW1 1877   0.293   0.893   0.818  0.1523  0.3735  0.5992
  611SOL    HW2 1878   0.191   0.844   0.729  0.2541  0.4056 -1.9658
  612SOL     OW 1879   1.780   0.915   2.618  0.3883  0.5590 -0.1131
  612SOL    HW1 1880   1.869   0.887   2.645 -0.5828 -1.0339  0.6746
  612SOL    HW2 1881   1.775   0.995   2.676 -0.9270  2.3850  0.4762
  613SOL     OW 1882   2.415   2.884   2.207 -0.1193 -0.4193  0.4437
  613SOL    HW1 1883   2.420   2.926   2.120  1.2761 -0.5647 -0.0596
  613SOL    HW2 1884   2.416   2.968   2.261  0.9265  1.6565  0.1975
  614SOL     OW 1885   1.035   1.636   0.636  0.0660 -0.2064 -0.2557
  614SOL    HW1 1886   1.109   1.596   0.586  3.0566 -2.1109  0.0999
  614SOL    HW2 1887   1.030   1.567   0.706  2.6953 -2.0656 -1.0205
  615SOL     OW 1888   1.154   0.093   0.088 -0.2365  0.3990  0.0011
  615SOL    HW1 1889   1.219   0.170   0.117  2.8548  0.7402 -0.2192
  615SOL    HW2 1890   1.070   0.134   0.104  4.0078  0.3590  0.6459
  616SOL     OW 1891   2.091   0.479   1.042  0.5979  0.4288 -0.2650
  616SOL    HW1 1892   2.082   0.533   1.122 -0.2282  0.5672  0.8031
  616SOL    HW2 1893   2.013   0.417   1.054 -1.7962 -2.4562  0.0483
  617SOL     OW 1894   0.147   2.975   2.935 -0.4398 -0.1355 -0.3495
  617SOL    HW1 1895   0.174   2.993   2.841  2.0555 -0.6479 -1.0259
  617SOL    HW2 1896   0.114   2.885   2.921  1.8189  0.1891 -0.0419
  618SOL     OW 1897   1.755   1.661   2.198 -1.0921 -0.0807 -0.3374
  618SOL    HW1 1898   1.812   1.737   2.213 -1.1931 -0.8300  0.5566
  618SOL    HW2 1899   1.787   1.636   2.109  0.4035 -1.5229  2.1668
  619SOL     OW 1900   2.263   1.408   0.278  0.0002  0.6101  0.1370
  619SOL    HW1 1901   2.246   1.405   0.372 -0.9051  2.2935  0.4426
  619SOL    HW2 1902   2.310   1.326   0.258 -1.3424  0.9730 -0.2062
  620SOL     OW 1903   0.961   0.901   0.157 -0.1568 -0.2283  0.1562
  620SOL    HW1 1904   1.003   0.926   0.075 -2.3672  0.7142  4.9362
  620SOL    HW2 1905   0.921   0.816   0.135  0.8095 -1.3315 -0.8696
  621SOL     OW 1906   2.860   2.064   1.911  0.4274 -0.3366  0.5996
  621SOL    HW1 1907   2.914   2.141   1.875  0.9554  1.8606  0.0007
  621SOL    HW2 1908   2.807   2.043   1.828 -0.9440  1.3845  0.9302
  622SOL     OW 1909   2.743   1.994   1.682 -0.0492  0.3972 -0.2040
  622SOL    HW1 1910   2.660   1.935   1.691  1.0278  3.5162 -0.8615
  622SOL    HW2 1911   2.693   2.082   1.655 -0.3890  2.5927  2.6059
  623SOL     OW 1912   2.740   0.666   1.159  0.3718 -0.1087 -0.5302
  623SOL    HW1 1913   2.750   0.698   1.061  0.0879  2.3493  3.8921
  623SOL    HW2 1914   2.665   0.608   1.158 -0.9409 -1.0743 -0.8332
  624SOL     OW 1915   0.603   0.754   1.847 -0.1598 -0.5120 -0.5168
  624SOL    HW1 1916   0.551   0.836   1.858 -0.0949 -2.2483 -0.6251
  624SOL    HW2 1917   0.611   0.708   1.933 -2.3901 -0.7122 -2.9726
  625SOL     OW 1918   1.506   0.278   0.175 -0.3975 -0.2595  0.4087
  625SOL    HW1 1919   1.537   0.200   0.137  0.0789 -2.1557  0.3108
  625SOL    HW2 1920   1.553   0.343   0.110  1.4274  1.6075 -3.2195
  626SOL     OW 1921   2.560   2.528   1.254 -0.0045  0.2047 -0.0627
  626SOL    HW1 1922   2.479   2.488   1.232  2.8701 -0.4323  0.9818
  626SOL    HW2 1923   2.582   2.577   1.168 -2.8318  0.7223 -0.9201
  627SOL     OW 1924   2.683   2.386   0.820 -0.0763  0.6484 -0.2200
  627SOL    HW1 1925   2.712   2.338   0.737 -0.8462 -1.3011 -2.4766
  627SOL    HW2 1926   2.688   2.479   0.800 -0.9785  0.1314  1.7898
  628SOL     OW 1927   2.227   2.149   0.718  0.9699 -0.4122 -0.8619
  628SOL    HW1 1928   2.140   2.134   0.761 -1.1627 -0.1895  2.7092
  628SOL    HW2 1929   2.193   2.151   0.628  0.6733 -2.4508  1.7901
  629SOL     OW 1930   0.572   0.493   0.930 -0.1523 -0.0783 -0.4283
  629SOL    HW1 1931   0.531   0.464   1.017 -1.3830  1.7778  0.3470
  629SOL    HW2 1932   0.588   0.586   0.946  0.1694 -0.5023  1.0792
  630SOL     OW 1933   1.353   2.485   0.908  0.4892  0.1599  0.6497
  630SOL    HW1 1934   1.328   2.400   0.873  4.7938  1.2975  2.3814
  630SOL    HW2 1935   1.275   2.542   0.876 -0.1681 -3.1979 -2.1624
  631SOL     OW 1936   2.514   2.794   0.541  0.6957 -0.5173 -0.6918
  631SOL    HW1 1937   2.447   2.855   0.571 -0.5243 -2.1345  0.7965
  631SOL    HW2 1938   2.454   2.722   0.509 -2.1362 -1.3533  0.1719
  632SOL     OW 1939   2.556   2.930   1.744 -0.0679 -0.3083 -0.6441
  632SOL    HW1 1940   2.608   2.921   1.824  0.8172 -1.6747  0.4657
  632SOL    HW2 1941   2.619   2.967   1.682  1.6276 -1.8933  1.1885
  633SOL     OW 1942   2.034   1.145   1.692 -0.2248  0.4407 -0.5450
  633SOL    HW1 1943   2.096   1.174   1.759 -2.7036 -0.0498  0.9580
  633SOL    HW2 1944   1.985   1.077   1.736  1.7994  0.2503  0.8403
  634SOL     OW 1945   2.826   2.344   1.760 -0.0520 -0.3366 -0.8306
  634SOL    HW1 1946   2.779   2.306   1.832  4.0390 -0.9711  1.2569
  634SOL    HW2 1947   2.798   2.279   1.694 -0.4208  0.7132 -2.6757
  635SOL     OW 1948   1.983   1.891   1.844 -0.2746  0.0246 -0.0242
  635SOL    HW1 1949   1.996   1.979   1.808 -0.6002 -3.3745  0.3764
  635SOL    HW2 1950   2.006   1.927   1.934  0.4598  0.8109 -1.0834
  636SOL     OW 1951   1.241   2.218   0.171 -0.2171 -0.2682  0.6988
  636SOL    HW1 1952   1.239   2.218   0.075  1.2077 -2.4880 -0.2796
  636SOL    HW2 1953   1.171   2.154   0.194 -1.1641 -0.4510  0.9779
  637SOL     OW 1954   2.116   2.495   0.715 -0.2560  0.1619  0.3337
  637SOL    HW1 1955   2.079   2.436   0.651  1.3804  3.1214  0.9953
  637SOL    HW2 1956   2.052   2.480   0.787 -0.3123  2.0160  0.1514
  638SOL     OW 1957   0.972   2.130   2.147  0.0832 -0.6188  0.5095
  638SOL    HW1 1958   0.990   2.065   2.076  1.4126 -0.4216  3.4128
  638SOL    HW2 1959   0.904   2.071   2.185 -1.3234 -1.5529 -1.3359
  639SOL     OW 1960   0.228   2.163   0.682  0.1742  0.2514 -0.3983
  639SOL    HW1 1961   0.137   2.126   0.668  0.8235  1.4963  1.7802
  639SOL    HW2 1962   0.234   2.155   0.783 -0.0698  1.3291 -1.5262
  640SOL     OW 1963   0.751   2.339   2.106 -0.7988  0.1812  0.4885
  640SOL    HW1 1964   0.841   2.322   2.119 -0.3013 -0.1040 -0.1188
  640SOL    HW2 1965   0.730   2.261   2.047  0.2693  0.1881 -1.2934
  641SOL     OW 1966   0.741   1.983   1.014 -0.1224 -0.7723 -0.4343
  641SOL    HW1 1967   0.775   2.031   1.085  1.0369 -2.6005  0.4329
  641SOL    HW2 1968   0.810   1.925   0.984  1.0628  0.9180 -3.4864
  642SOL     OW 1969   2.781   1.902   2.687 -0.2866 -0.1216 -0.0095
  642SOL    HW1 1970   2.785   1.831   2.622 -0.8463  0.0502 -0.6714
  642SOL    HW2 1971   2.684   1.921   2.688  2.3192  1.4975  0.4777
  643SOL     OW 1972   2.778   1.608   1.004  1.0120 -0.4691 -0.0970
  643SOL    HW1 1973   2.771   1.512   1.036 -1.7532 -0.8726 -1.1169
  643SOL    HW2 1974   2.815   1.609   0.916 -2.9449 -2.7515  2.7763
  644SOL     OW 1975   2.318   2.560   0.517 -0.0165 -0.0197 -0.5999
  644SOL    HW1 1976   2.247   2.500   0.538 -0.2276  1.8800 -2.1990
  644SOL    HW2 1977   2.254   2.639   0.530  1.9454  2.4011  0.4341
  645SOL     OW 1978   0.420   1.375   0.377  0.0073 -0.1770  0.3863
  645SOL    HW1 1979   0.491   1.322   0.411 -0.0273 -2.4590 -0.4110
  645SOL    HW2 1980   0.411   1.326   0.294  3.0779  1.4749 -0.1020
  646SOL     OW 1981   0.892   2.680   2.474 -0.0773  0.7128  1.0562
  646SOL    HW1 1982   0.810   2.640   2.440  1.7543  1.3271 -3.1157
  646SOL    HW2 1983   0.943   2.604   2.507  0.2593 -0.9262 -2.1847
  647SOL     OW 1984   2.983   0.670   1.540 -0.3725  0.1705 -0.0588
  647SOL    HW1 1985   2.904   0.664   1.484 -0.0715 -0.5685 -1.3952
  647SOL    HW2 1986   2.955   0.627   1.620  2.8411 -0.1870  0.3753
  648SOL     OW 1987   0.483   0.052   0.488  0.3770  0.4063  0.1148
  648SOL    HW1 1988   0.472  -0.047   0.509  1.3297 -0.4382 -0.1821
  648SOL    HW2 1989   0.569   0.066   0.523  0.1646  0.0660 -0.5017
  649SOL     OW 1990   0.068   1.950   1.539  1.0119 -0.4294  0.1878
  649SOL    HW1 1991   0.125   2.017   1.580  0.5865  0.4453  1.5575
  649SOL    HW2 1992  -0.011   1.959   1.601  0.2892  2.5980 -2.1331
  650SOL     OW 1993   0.198   1.421   0.623  0.0455 -0.5105  0.3266
  650SOL    HW1 1994   0.133   1.419   0.698 -1.5641  1.6505 -0.6285
  650SOL    HW2 1995   0.280   1.454   0.662 -0.7788 -2.3206  1.3135
  651SOL     OW 1996   1.343   1.376   0.112  0.6556 -0.3362 -0.0036
  651SOL    HW1 1997   1.267   1.330   0.069 -1.7007  0.7443 -0.1837
  651SOL    HW2 1998   1.297   1.424   0.172  2.1289  0.0000 -5.7175
  652SOL     OW 1999   0.674   2.176   1.922  0.3653 -0.4013 -0.2374
  652SOL    HW1 2000   0.603   2.221   1.886 -1.2661 -2.2730  2.5372
  652SOL    HW2 2001   0.638   2.088   1.937 -1.7020  2.5488  0.2464
  653SOL     OW 2002   0.573   1.617   1.153  0.0516 -0.5027  0.3602
  653SOL    HW1 2003   0.523   1.535   1.147  1.2323 -0.9823  0.9150
  653SOL    HW2 2004   0.595   1.632   1.059 -4.1474 -2.6230  0.4064
  654SOL     OW 2005   1.503   1.738   2.212  0.0536  0.5434  0.2228
  654SOL    HW1 2006   1.516   1.831   2.206 -1.7571  0.0461  1.3755
  654SOL    HW2 2007   1.588   1.695   2.186 -2.0768 -1.5751  0.9065
  655SOL     OW 2008   2.480   1.737   0.898  1.0397  0.5753 -0.0166
  655SOL    HW1 2009   2.454   1.653   0.928 -0.7685 -1.2254 -2.0514
  655SOL    HW2 2010   2.443   1.745   0.807 -2.9311  1.9661 -1.7567
  656SOL     OW 2011   0.931   0.668   2.360 -0.1630  0.4338  0.0173
  656SOL    HW1 2012   0.852   0.638   2.307  2.1675  0.1328  0.3218
  656SOL    HW2 2013   0.895   0.741   2.414  2.5314 -2.0918 -2.5071
  657SOL     OW 2014   1.582   0.654   0.765  0.2871 -0.1146 -0.1133
  657SOL    HW1 2015   1.524   0.577   0.732 -0.9668 -0.2229 -5.6761
  657SOL    HW2 2016   1.582   0.714   0.686  0.0973  0.5487 -0.1553
  658SOL     OW 2017   0.949   1.576   2.071  0.6475 -0.5395  0.7127
  658SOL    HW1 2018   1.038   1.583   2.112 -0.7152 -0.3435  0.8868
  658SOL    HW2 2019   0.940   1.483   2.057 -0.4547 -0.0167  1.3248
  659SOL     OW 2020   2.811   2.985   0.116 -0.9666  0.6325  0.6602
  659SOL    HW1 2021   2.852   2.980   0.030  0.8013 -1.2041  0.0301
  659SOL    HW2 2022   2.762   2.897   0.123 -1.2023  1.6906 -0.2417
  660SOL     OW 2023   2.559   0.369   0.661 -0.0588 -0.1497 -0.3311
  660SOL    HW1 2024   2.647   0.356   0.699 -2.6890  0.5728 -0.0542
  660SOL    HW2 2025   2.554   0.290   0.598  0.7673  1.2116  2.7629
  661SOL     OW 2026   0.007   1.219   1.026  0.5245 -0.3133  0.1774
  661SOL    HW1 2027   0.016   1.286   0.958 -2.5720  2.7457 -0.6375
  661SOL    HW2 2028  -0.013   1.132   0.981  1.7484 -0.1145  0.5283
  662SOL     OW 2029   0.056   0.972   0.120  0.1058  0.2493 -0.0578
  662SOL    HW1 2030   0.060   0.996   0.030 -1.1044 -1.7677 -2.0610
  662SOL    HW2 2031   0.133   0.915   0.124  0.2191 -0.6587  0.7132
  663SOL     OW 2032   0.076   2.438   0.377 -0.4693  0.1200  0.1807
  663SOL    HW1 2033   0.012   2.365   0.394  3.4331  4.4839 -2.5020
  663SOL    HW2 2034   0.089   2.418   0.282 -2.4815 -2.5357 -2.5121
  664SOL     OW 2035   2.341   2.767   0.828  0.1371  0.3868 -0.1563
  664SOL    HW1 2036   2.344   2.812   0.751  1.1621 -1.9351  0.8847
  664SOL    HW2 2037   2.265   2.706   0.809 -0.5540  2.9697  0.7287
  665SOL     OW 2038   2.674   0.564   0.242 -0.0632  0.2356 -0.2646
  665SOL    HW1 2039   2.745   0.499   0.242 -0.2737  0.8316 -0.6824
  665SOL    HW2 2040   2.660   0.584   0.148  0.5596 -2.5827 -0.0430
  666SOL     OW 2041   1.869   0.820   1.159  0.0583  0.0313  0.4892
  666SOL    HW1 2042   1.863   0.747   1.222 -1.6294 -0.1016  2.1903
  666SOL    HW2 2043   1.856   0.904   1.212  0.8065 -3.3755  0.2313
  667SOL     OW 2044   0.727   1.627   0.635  0.5282 -0.5272  0.7354
  667SOL    HW1 2045   0.731   1.722   0.610 -0.5260  1.3085 -0.3457
  667SOL    HW2 2046   0.749   1.639   0.734  1.5486  1.5650 -0.7062
  668SOL     OW 2047   1.601   0.782   0.539  0.0028  0.2802  1.1318
  668SOL    HW1 2048   1.540   0.834   0.479  0.0868 -1.0676 -0.2311
  668SOL    HW2 2049   1.687   0.793   0.502 -2.1945  0.2148  1.6701
  669SOL     OW 2050   1.280   2.159   2.905  0.1966  0.1058 -0.1222
  669SOL    HW1 2051   1.293   2.074   2.956  0.7837 -2.5452  1.1342
  669SOL    HW2 2052   1.360   2.142   2.848 -0.8566 -0.7775  4.1073
  670SOL     OW 2053   2.067   0.637   2.368 -0.7112 -0.5231 -0.1601
  670SOL    HW1 2054   2.035   0.733   2.355 -0.0490  0.8383 -1.4054
  670SOL    HW2 2055   1.980   0.591   2.359 -3.1091 -0.7180 -1.1641
  671SOL     OW 2056   1.185   0.896   2.487 -0.0602 -0.5990 -0.9028
  671SOL    HW1 2057   1.109   0.851   2.539  0.3805 -1.5739  2.1224
  671SOL    HW2 2058   1.267   0.864   2.536 -0.4414 -1.5005 -0.6282
  672SOL     OW 2059   2.735   0.494   2.660  0.1924  0.0557 -0.3938
  672SOL    HW1 2060   2.690   0.553   2.721  2.0612 -2.3753 -4.0696
  672SOL    HW2 2061   2.826   0.515   2.685  2.2725 -1.0730 -1.6191
  673SOL     OW 2062   2.784   0.661   2.401  0.1957  0.5805 -0.5665
  673SOL    HW1 2063   2.796   0.556   2.377  2.5865 -3.6148 -2.9985
  673SOL    HW2 2064   2.724   0.664   2.473  0.7342 -0.6592 -2.2270
  674SOL     OW 2065   0.483   2.592   2.972 -0.0906 -0.9435  0.4023
  674SOL    HW1 2066   0.557   2.541   2.947 -0.9147 -1.6634  1.9073
  674SOL    HW2 2067   0.523   2.683   2.964 -1.0706 -2.3618 -2.8457
  675SOL     OW 2068   0.395   1.658   1.578 -0.1343  0.0235  0.6816
  675SOL    HW1 2069   0.307   1.693   1.562  2.7012 -1.6525  0.9179
  675SOL    HW2 2070   0.384   1.566   1.543 -2.2532 -1.3070  3.8060
  676SOL     OW 2071   1.187   1.475   0.889  0.3845  0.4822 -0.6914
  676SOL    HW1 2072   1.223   1.549   0.846  0.7871  0.1008  1.0543
  676SOL    HW2 2073   1.255   1.465   0.964  2.9131  1.5449 -1.2758
  677SOL     OW 2074   1.791   2.104   1.218  0.0856 -0.1203 -0.0439
  677SOL    HW1 2075   1.699   2.095   1.178  0.2337 -0.7383 -5.1563
  677SOL    HW2 2076   1.819   2.013   1.212  0.9502  0.6882  1.4798
  678SOL     OW 2077   0.842   0.943   0.633 -0.3216 -0.3365  0.0468
  678SOL    HW1 2078   0.785   0.866   0.633  1.9656  1.5675  0.8909
  678SOL    HW2 2079   0.767   1.005   0.620 -0.6357  0.1320  0.9307
  679SOL     OW 2080   2.853   1.961   0.471 -0.5189  0.6595  0.2489
  679SOL    HW1 2081   2.948   1.944   0.453 -4.7079 -1.3932 -0.6313
  679SOL    HW2 2082   2.818   1.897   0.409  1.6008 -4.4869 -0.3683
  680SOL     OW 2083   0.726   1.898   0.487  0.2874 -0.1442 -0.5261
  680SOL    HW1 2084   0.728   1.992   0.511  0.2609  1.3548 -2.4435
  680SOL    HW2 2085   0.645   1.906   0.437 -2.0007  1.2108 -2.4810
  681SOL     OW 2086   1.910   0.796   0.784 -0.6587  0.3242 -0.4311
  681SOL    HW1 2087   2.004   0.780   0.774 -1.6249  0.1466 -0.2941
  681SOL    HW2 2088   1.886   0.839   0.698  0.3331 -0.3217  0.6493
  682SOL     OW 2089   1.026   2.411   2.249  0.0042 -0.0679  0.1399
  682SOL    HW1 2090   1.093   2.481   2.248  0.0867 -4.1337  1.5741
  682SOL    HW2 2091   1.082   2.326   2.260  2.7663 -3.5212  1.3821
  683SOL     OW 2092   0.665   2.500   0.244 -0.3793 -0.1482 -0.3453
  683SOL    HW1 2093   0.746   2.446   0.258  0.6085  0.2492 -0.0221
  683SOL    HW2 2094   0.612   2.431   0.206 -2.8752 -1.7688 -0.5746
  684SOL     OW 2095   0.257   2.365   1.991  0.5833  0.7488  0.1626
  684SOL    HW1 2096   0.273   2.420   2.071 -3.1297 -0.2174  0.3292
  684SOL    HW2 2097   0.200   2.431   1.953  2.5863 -3.0684 -0.2453
  685SOL     OW 2098   2.334   1.579   2.456  0.4816 -0.6222 -0.5151
  685SOL    HW1 2099   2.417   1.558   2.502  0.6096 -1.2841  0.7893
  685SOL    HW2 2100   2.292   1.495   2.460  1.2717 -2.1820 -4.8989
  686SOL     OW 2101   0.306   2.308   1.217  0.7676  0.7625  0.7495
  686SOL    HW1 2102   0.334   2.274   1.299  1.0076  2.1411 -2.4543
  686SOL    HW2 2103   0.307   2.229   1.157 -0.2650  1.4612  0.6306
  687SOL     OW 2104   0.684   1.413   0.485  0.2030  0.5152 -0.4551
  687SOL    HW1 2105   0.703   1.501   0.524  1.0776 -0.1829  1.8703
  687SOL    HW2 2106   0.771   1.402   0.446  3.0407 -0.2121  1.6873
  688SOL     OW 2107   1.297   1.239   2.070  0.5350  0.5132  0.0623
  688SOL    HW1 2108   1.342   1.325   2.088 -0.1248 -1.8210  2.7975
  688SOL    HW2 2109   1.326   1.169   2.133 -1.0168 -1.1103  3.3785
  689SOL     OW 2110   2.122   0.401   1.355 -0.0942 -0.6110  0.1219
  689SOL    HW1 2111   2.108   0.311   1.342 -0.6819  1.7204  3.4597
  689SOL    HW2 2112   2.206   0.400   1.405  2.9255 -2.7975  0.2348
  690SOL     OW 2113   2.626   0.920   1.759 -0.1983 -0.6190  0.2697
  690SOL    HW1 2114   2.581   0.844   1.716 -1.2691 -3.4545  2.6104
  690SOL    HW2 2115   2.722   0.901   1.755 -0.8492 -0.2135  1.0406
  691SOL     OW 2116   2.142   1.744   0.892  0.1321  0.0868  0.9560
  691SOL    HW1 2117   2.230   1.707   0.896 -0.1007 -1.0816 -1.9697
  691SOL    HW2 2118   2.132   1.717   0.800  1.7248 -2.2932 -1.6148
  692SOL     OW 2119   1.824   1.740   0.241 -0.4188 -0.5984 -0.0280
  692SOL    HW1 2120   1.911   1.712   0.262  2.2108 -1.0715 -0.3664
  692SOL    HW2 2121   1.771   1.663   0.273 -0.4235 -0.4163 -0.9072
  693SOL     OW 2122   1.900   2.930   2.920 -0.3043  0.2112 -0.5958
  693SOL    HW1 2123   1.984   2.953   2.874  1.2055  0.5060 -1.4186
  693SOL    HW2 2124   1.835   2.994   2.876  2.2955  1.6820 -0.6220
  694SOL     OW 2125   0.118   2.152   1.728 -0.1008 -0.3282 -0.2989
  694SOL    HW1 2126   0.159   2.236   1.699  0.9116 -0.3357 -2.0445
  694SOL    HW2 2127   0.187   2.113   1.788 -2.5427 -0.6824 -2.6048
  695SOL     OW 2128   0.066   2.038   2.526 -0.3739 -0.3069 -0.3218
  695SOL    HW1 2129  -0.026   2.066   2.513  1.2236 -0.0393 -0.3584
  695SOL    HW2 2130   0.052   1.947   2.501 -1.7593 -0.5212  3.3030
  696SOL     OW 2131   0.331   2.859   2.266 -0.0354 -0.7563 -0.4201
  696SOL    HW1 2132   0.391   2.901   2.329  1.6220 -2.1560  0.7873
  696SOL    HW2 2133   0.348   2.765   2.275  1.4538 -1.6398  3.0039
  697SOL     OW 2134   0.795   1.158   2.577  0.6789 -0.1255  0.1826
  697SOL    HW1 2135   0.853   1.158   2.500 -0.1293  1.4993  0.2600
  697SOL    HW2 2136   0.711   1.139   2.529  0.1103 -0.4384 -1.3267
  698SOL     OW 2137   1.891   2.027   1.467  0.6503 -0.7532 -0.8627
  698SOL    HW1 2138   1.858   2.028   1.376 -1.4032  2.1701  0.5423
  698SOL    HW2 2139   1.847   2.113   1.489 -1.9297  3.7742 -0.9791
  699SOL     OW 2140   0.082   0.710   1.930 -0.5515 -0.3090 -0.4019
  699SOL    HW1 2141   0.003   0.702   1.983  1.1046 -0.3374  0.6741
  699SOL    HW2 2142   0.156   0.727   1.993 -0.3796 -1.1984 -3.5083
  700SOL     OW 2143   2.791   0.756   0.877 -0.1851 -0.1841 -0.3701
  700SOL    HW1 2144   2.857   0.720   0.817  1.3673 -0.9055  1.6173
  700SOL    HW2 2145   2.716   0.770   0.813  0.5407  2.2263 -0.4056
  701SOL     OW 2146   2.747   1.838   0.812 -0.1644  0.7249  0.2936
  701SOL    HW1 2147   2.739   1.913   0.863  2.8940 -2.5463  3.5556
  701SOL    HW2 2148   2.654   1.805   0.816  0.9987 -1.1097 -0.9442
  702SOL     OW 2149   1.908   0.585   1.305 -1.0516 -0.2329 -1.1370
  702SOL    HW1 2150   1.995   0.548   1.321  6.2596 -0.0584 -1.3634
  702SOL    HW2 2151   1.854   0.515   1.264  0.7465  3.8953  0.2858
  703SOL     OW 2152   1.907   1.457   1.191 -0.2186  0.1710  0.4283
  703SOL    HW1 2153   1.841   1.397   1.160  2.3368 -2.2185 -0.0266
  703SOL    HW2 2154   1.881   1.537   1.147  3.0414  0.2762  1.3140
  704SOL     OW 2155   1.649   1.844   1.802  0.0885 -0.4403 -1.0399
  704SOL    HW1 2156   1.625   1.751   1.813 -0.9395  1.5935  0.9835
  704SOL    HW2 2157   1.736   1.855   1.851 -2.9132 -1.2695  0.9370
  705SOL     OW 2158   0.448   1.807   1.316  0.0075 -0.9812  0.2829
  705SOL    HW1 2159   0.502   1.742   1.275 -2.0810 -1.7233 -2.4658
  705SOL    HW2 2160   0.404   1.755   1.388  2.7384  3.8150  0.0992
  706SOL     OW 2161   2.921   2.697   1.032 -0.5020 -0.2981 -0.9429
  706SOL    HW1 2162   2.837   2.742   0.993  0.4930  0.7319 -0.8811
  706SOL    HW2 2163   2.906   2.705   1.130  1.6986  0.3932  2.9488
  707SOL     OW 2164   0.186   0.414   1.786 -0.3680  0.3277 -0.2242
  707SOL    HW1 2165   0.248   0.494   1.772 -0.0410 -0.2053  2.0834
  707SOL    HW2 2166   0.190   0.387   1.883  0.6784 -2.5584  4.7595
  708SOL     OW 2167   0.172   1.113   2.233  0.7139  0.2112 -0.2171
  708SOL    HW1 2168   0.215   1.121   2.323 -1.2757 -1.1590  0.0805
  708SOL    HW2 2169   0.122   1.195   2.221 -0.9571 -3.8409 -0.9011
  709SOL     OW 2170   2.710   0.928   0.156 -0.2838 -0.0248  0.0967
  709SOL    HW1 2171   2.793   0.972   0.124 -3.2347  1.2145 -2.6259
  709SOL    HW2 2172   2.729   0.838   0.125  1.1068  1.5958 -0.5317
  710SOL     OW 2173   2.974   2.441   2.240  0.0468  0.1226 -0.1855
  710SOL    HW1 2174   2.912   2.387   2.185  3.1032 -1.3155  3.4311
  710SOL    HW2 2175   2.923   2.481   2.313  0.3076  2.2365  1.3561
  711SOL     OW 2176   1.257   0.319   0.175 -0.1824  0.0631 -0.0748
  711SOL    HW1 2177   1.241   0.334   0.272 -1.0915  0.8972 -0.2434
  711SOL    HW2 2178   1.358   0.302   0.168 -0.5188  0.1214 -0.6240
  712SOL     OW 2179   0.235   2.105   0.940 -0.1841  0.2555  0.5909
  712SOL    HW1 2180   0.204   2.013   0.946 -3.1178 -1.3227  0.1429
  712SOL    HW2 2181   0.168   2.146   0.996  2.2304  1.3316  2.0599
  713SOL     OW 2182   0.683   2.745   0.309 -0.2589  0.3492 -0.1254
  713SOL    HW1 2183   0.691   2.661   0.260 -1.5391 -1.3101  0.0887
  713SOL    HW2 2184   0.635   2.720   0.388 -0.9325  1.7195 -0.2740
  714SOL     OW 2185   1.034   1.961   2.700  0.1253  0.1790 -0.2689
  714SOL    HW1 2186   1.067   1.911   2.768  1.9027  0.2644  1.1101
  714SOL    HW2 2187   0.946   1.936   2.690  2.0277 -2.4166  1.8622
  715SOL     OW 2188   2.919   1.528   2.153 -0.2518 -0.2722 -0.3344
  715SOL    HW1 2189   2.839   1.497   2.199  0.9698  0.2017  0.4672
  715SOL    HW2 2190   2.887   1.623   2.162 -1.1207  0.4848  0.7921
  716SOL     OW 2191   1.517   2.073   0.460  0.5642  0.0312 -0.1501
  716SOL    HW1 2192   1.503   1.986   0.430 -0.3892 -0.3848  0.9577
  716SOL    HW2 2193   1.434   2.094   0.503 -1.8931  1.7819  4.0458
  717SOL     OW 2194   0.003   1.764   0.097  0.5302  0.0428  0.3824
  717SOL    HW1 2195  -0.085   1.791   0.057  1.7189  1.0744  2.2996
  717SOL    HW2 2196   0.049   1.845   0.135  0.2800  0.9770 -0.5689
  718SOL     OW 2197   0.943   0.394   2.343  0.4667  0.8595  0.2722
  718SOL    HW1 2198   0.916   0.473   2.384 -2.1830 -0.9931 -0.4112
  718SOL    HW2 2199   0.929   0.321   2.413 -0.2816 -1.2930 -2.7712
  719SOL     OW 2200   2.512   1.808   1.187  0.2289 -0.3639 -0.1386
  719SOL    HW1 2201   2.461   1.731   1.226 -2.8449 -2.8712 -1.9573
  719SOL    HW2 2202   2.487   1.789   1.097 -1.2015 -1.8404  2.5931
  720SOL     OW 2203   0.911   1.310   1.886  0.0245 -0.0741  0.3852
  720SOL    HW1 2204   0.863   1.365   1.816  0.2808  1.5671  0.2884
  720SOL    HW2 2205   1.001   1.330   1.865 -1.6357  1.7211  1.2824
  721SOL     OW 2206   0.337   2.067   2.900  0.2199 -0.3666  0.3361
  721SOL    HW1 2207   0.269   2.132   2.915  4.7218  0.8841 -0.2053
  721SOL    HW2 2208   0.286   1.977   2.885 -1.9288  0.2887 -0.0684
  722SOL     OW 2209   0.088   2.165   2.263 -0.1059 -0.1529 -0.3988
  722SOL    HW1 2210   0.058   2.254   2.248 -3.0954 -1.7863 -2.9415
  722SOL    HW2 2211   0.070   2.156   2.355  1.8290  0.6134 -1.2371
  723SOL     OW 2212   0.375   2.908   2.006 -0.3203  0.2350  0.1790
  723SOL    HW1 2213   0.340   2.893   2.101 -0.3716  1.4573  1.1895
  723SOL    HW2 2214   0.396   2.815   1.983  2.0679 -1.1810 -0.5731
  724SOL     OW 2215   0.015   0.879   1.303  0.2448 -0.2595 -0.0380
  724SOL    HW1 2216   0.069   0.957   1.275  1.6426 -0.4181  1.5141
  724SOL    HW2 2217   0.077   0.843   1.364  2.1302  2.3192  1.6999
  725SOL     OW 2218   2.510   2.212   1.172  0.9988  0.3233  0.2838
  725SOL    HW1 2219   2.421   2.243   1.183 -1.6014  0.1749  1.8335
  725SOL    HW2 2220   2.502   2.138   1.230 -0.0020  0.0571 -0.3480
  726SOL     OW 2221   0.105   2.862   2.630 -0.4460 -0.2935 -0.0050
  726SOL    HW1 2222   0.081   2.823   2.711  1.6483  1.0134 -0.3969
  726SOL    HW2 2223   0.157   2.785   2.598 -1.0576 -0.5525 -0.3628
  727SOL     OW 2224   1.573   0.755   1.959 -0.1475 -0.5249 -0.3321
  727SOL    HW1 2225   1.487   0.793   1.912  0.7520  0.8795 -1.1450
  727SOL    HW2 2226   1.618   0.844   1.956 -2.8251 -2.6075 -2.0214
  728SOL     OW 2227   1.265   0.842   0.728  0.1013 -0.3185  0.6689
  728SOL    HW1 2228   1.350   0.851   0.776  0.2990  1.9546  1.4065
  728SOL    HW2 2229   1.246   0.755   0.757 -0.5293 -0.1816 -0.7924
  729SOL     OW 2230   1.906   1.269   2.627 -0.0753  0.6791 -1.4922
  729SOL    HW1 2231   1.837   1.276   2.558 -3.4724 -1.7041 -0.5847
  729SOL    HW2 2232   1.968   1.218   2.577 -0.3820 -1.3503  1.4047
  730SOL     OW 2233   2.717   2.576   1.463  0.5667 -0.1604 -0.3796
  730SOL    HW1 2234   2.751   2.481   1.474 -0.3462 -2.0496  0.3726
  730SOL    HW2 2235   2.665   2.558   1.380  1.3483 -0.1726  0.9601
  731SOL     OW 2236   0.588   2.607   2.157 -0.5823  0.0220  0.1861
  731SOL    HW1 2237   0.599   2.532   2.221 -0.5314  0.6865  2.7075
  731SOL    HW2 2238   0.680   2.616   2.136  0.2914 -2.9217 -1.0360
  732SOL     OW 2239   1.232   1.141   2.688  0.0932 -0.1928  0.0249
  732SOL    HW1 2240   1.209   1.220   2.641  0.7513 -1.1844 -1.9098
  732SOL    HW2 2241   1.198   1.079   2.617  2.1228  0.5359  2.1140
  733SOL     OW 2242   2.944   0.991   0.917  0.2350  0.6053 -0.4754
  733SOL    HW1 2243   2.874   1.006   0.844  2.5008  1.5336 -2.0493
  733SOL    HW2 2244   2.922   0.900   0.952  0.8397 -1.4785 -0.5052
  734SOL     OW 2245   0.000   2.445   0.867 -0.6750  0.0121  0.4251
  734SOL    HW1 2246   0.079   2.468   0.811 -0.6139  1.8118  0.6403
  734SOL    HW2 2247  -0.021   2.533   0.920 -1.1755  1.7914 -4.4898
  735SOL     OW 2248   1.042   2.473   2.549  0.5425  0.5575  0.5856
  735SOL    HW1 2249   1.095   2.460   2.471  2.2328 -0.4051  2.2650
  735SOL    HW2 2250   1.043   2.382   2.588  0.5166  1.1836  0.8093
  736SOL     OW 2251   1.593   2.969   1.463  0.2593  0.4005 -0.2183
  736SOL    HW1 2252   1.515   2.910   1.483 -1.3661  3.6889  0.6007
  736SOL    HW2 2253   1.644   2.927   1.391 -0.4889  1.1594  0.0513
  737SOL     OW 2254   0.590   0.404   0.111 -0.6690  0.2342 -0.4335
  737SOL    HW1 2255   0.544   0.477   0.153 -0.0786  2.4495  0.2609
  737SOL    HW2 2256   0.631   0.456   0.038 -0.4715  2.1647  1.3534
  738SOL     OW 2257   2.476   1.893   0.292 -0.0387  0.4525 -0.2275
  738SOL    HW1 2258   2.553   1.836   0.316  1.2739 -0.3640 -1.3085
  738SOL    HW2 2259   2.395   1.831   0.297 -0.7966 -1.3599  2.2761
  739SOL     OW 2260   1.042   0.003   1.966 -0.4821  0.3047 -0.2216
  739SOL    HW1 2261   1.009   0.014   1.878 -0.3076  0.1356 -1.2462
  739SOL    HW2 2262   1.132  -0.028   1.959  2.0887 -3.5313 -1.4036
  740SOL     OW 2263   1.082   1.137   0.325 -0.3456 -0.7009 -0.1953
  740SOL    HW1 2264   1.136   1.114   0.401  0.7073  2.2992  0.4764
  740SOL    HW2 2265   1.058   1.050   0.296 -0.5359  0.5135 -0.4832
  741SOL     OW 2266   0.282   2.481   0.149  0.0372  0.4156  0.2180
  741SOL    HW1 2267   0.337   2.531   0.093  1.2368  1.4350  0.2715
  741SOL    HW2 2268   0.197   2.498   0.115  1.8812 -0.5985 -2.9043
  742SOL     OW 2269   0.629   1.585   2.246  0.2965  0.3304 -0.2120
  742SOL    HW1 2270   0.556   1.560   2.308 -2.5598  1.1063  2.8275
  742SOL    HW2 2271   0.668   1.496   2.222 -3.7493 -2.3176 -1.3752
  743SOL     OW 2272   0.582   1.433   1.434 -0.1806 -0.1177  1.1599
  743SOL    HW1 2273   0.502   1.485   1.410  3.0037  1.0145  0.4214
  743SOL    HW2 2274   0.569   1.357   1.374  0.3181 -1.8507  3.3290
  744SOL     OW 2275   0.201   0.827   1.583 -0.6866 -0.8672 -0.1489
  744SOL    HW1 2276   0.241   0.765   1.649  2.5170 -0.9253  2.1533
  744SOL    HW2 2277   0.134   0.769   1.546  2.4992  1.2015 -2.3567
  745SOL     OW 2278   0.172   1.078   1.275 -0.4531  0.0612 -1.0009
  745SOL    HW1 2279   0.250   1.095   1.329  0.8937  1.8672 -1.8002
  745SOL    HW2 2280   0.158   1.158   1.223 -0.6653 -0.3179  1.2372
  746SOL     OW 2281   0.799   1.088   0.867 -0.4553  0.0626 -0.5878
  746SOL    HW1 2282   0.873   1.120   0.920  1.7423  1.1616 -1.6772
  746SOL    HW2 2283   0.847   1.057   0.790 -1.9067 -0.9603  0.5118
  747SOL     OW 2284   1.481   2.800   1.247 -0.4524 -0.3418 -0.3307
  747SOL    HW1 2285   1.414   2.732   1.218  2.5757 -1.8977 -1.0687
  747SOL    HW2 2286   1.534   2.798   1.168  0.7564  0.4226 -0.9031
  748SOL     OW 2287   1.497   2.916   2.048 -0.7562 -0.1425  0.6013
  748SOL    HW1 2288   1.579   2.886   2.000 -0.5665 -2.8649 -0.2452
  748SOL    HW2 2289   1.502   2.862   2.133 -2.7184 -3.0720  2.1204
  749SOL     OW 2290   0.969   0.709   1.272  0.3134  0.1774  0.4034
  749SOL    HW1 2291   0.950   0.639   1.208  1.7041 -3.1893 -1.4165
  749SOL    HW2 2292   0.909   0.688   1.345 -0.0343  1.5846  0.4471
  750SOL     OW 2293   1.281   1.022   0.538  0.2957 -0.3934  0.2032
  750SOL    HW1 2294   1.253   0.954   0.604  4.1723 -2.0935  4.6816
  750SOL    HW2 2295   1.359   0.975   0.505  0.9795 -2.8022 -5.8753
  751SOL     OW 2296   0.230   0.095   0.370 -0.2684  0.4566  0.3576
  751SOL    HW1 2297   0.322   0.071   0.395 -0.2477 -1.8988  1.2552
  751SOL    HW2 2298   0.223   0.041   0.297 -3.1280  2.0478  0.5921
  752SOL     OW 2299   1.354   0.536   2.769  0.1557 -0.2906  0.1194
  752SOL    HW1 2300   1.307   0.507   2.690 -2.3242 -1.1460 -0.0988
  752SOL    HW2 2301   1.449   0.528   2.737  2.4571  0.5992 -0.9840
  753SOL     OW 2302   1.164   0.443   2.603  0.2783 -0.3958 -0.5148
  753SOL    HW1 2303   1.094   0.392   2.566 -1.2345  1.7934 -2.1700
  753SOL    HW2 2304   1.148   0.426   2.703  1.4069  1.3857 -1.0360
  754SOL     OW 2305   0.839   1.590   1.262  0.1592  0.5051  0.1463
  754SOL    HW1 2306   0.837   1.683   1.283 -0.3412  3.3133  2.6274
  754SOL    HW2 2307   0.760   1.593   1.210  0.4106 -2.0828 -0.7515
  755SOL     OW 2308   0.065   1.441   1.231 -0.0754 -0.2721 -0.2413
  755SOL    HW1 2309   0.038   1.380   1.162  0.8792 -0.1079  1.7518
  755SOL    HW2 2310   0.096   1.524   1.194  0.0414  0.6175  1.6371
  756SOL     OW 2311   1.053   1.208   2.154 -0.1500 -0.0286 -0.7313
  756SOL    HW1 2312   1.143   1.212   2.107 -1.8180 -0.5295 -3.8184
  756SOL    HW2 2313   0.982   1.186   2.093 -0.3703  0.8008  0.3402
  757SOL     OW 2314   2.082   0.457   2.924  0.4822 -0.0418  0.4479
  757SOL    HW1 2315   2.165   0.398   2.936 -0.3531 -2.1259  1.4751
  757SOL    HW2 2316   2.017   0.398   2.894 -1.0360  0.4873 -0.6452
  758SOL     OW 2317   1.846   1.176   0.891  0.2362 -0.2663  0.1823
  758SOL    HW1 2318   1.920   1.146   0.943  0.0750  1.5594  4.1223
  758SOL    HW2 2319   1.793   1.198   0.972  0.2682 -2.8797  0.3010
  759SOL     OW 2320   2.197   1.426   2.749 -0.1653 -0.0865 -0.2554
  759SOL    HW1 2321   2.179   1.445   2.657 -0.5490 -1.0416 -0.2357
  759SOL    HW2 2322   2.110   1.381   2.765  2.1715 -0.3055  2.7839
  760SOL     OW 2323   2.160   2.731   2.480  0.1169 -0.5582  0.5413
  760SOL    HW1 2324   2.119   2.695   2.560 -2.2961  0.7080  0.4437
  760SOL    HW2 2325   2.132   2.668   2.407 -1.4494 -0.6276 -0.9932
  761SOL     OW 2326   0.725   0.370   2.039  0.0416  0.1793 -0.1426
  761SOL    HW1 2327   0.704   0.275   2.019 -0.5243  1.3705 -0.8330
  761SOL    HW2 2328   0.773   0.409   1.966  2.5361  0.0468 -2.3301
  762SOL     OW 2329   2.878   1.022   0.616 -0.3632  0.0416 -0.6112
  762SOL    HW1 2330   2.941   1.091   0.633  0.8319  1.9629 -2.3782
  762SOL    HW2 2331   2.802   1.056   0.660  3.1492  0.2703  1.5636
  763SOL     OW 2332   1.961   0.384   0.606 -0.4325 -0.6544  0.8836
  763SOL    HW1 2333   1.940   0.421   0.521 -2.7648  4.1448  1.4360
  763SOL    HW2 2334   1.910   0.440   0.665 -0.1220 -0.8254  0.7475
  764SOL     OW 2335   1.578   2.391   2.001  0.1484 -0.4124  0.3385
  764SOL    HW1 2336   1.491   2.375   2.053 -0.6534 -2.9282  1.9898
  764SOL    HW2 2337   1.629   2.412   2.076 -1.3309  1.7777  2.8259
  765SOL     OW 2338   0.435   2.908   0.006  0.2382  0.2296  0.1673
  765SOL    HW1 2339   0.497   2.939   0.076  0.9818  2.3658  0.9174
  765SOL    HW2 2340   0.354   2.910   0.059  0.2523  1.1643 -1.0669
  766SOL     OW 2341   0.047   2.197   1.098  0.0586  0.1849 -0.5003
  766SOL    HW1 2342  -0.021   2.131   1.125 -0.2566 -1.7349  2.7003
  766SOL    HW2 2343  -0.013   2.274   1.072  2.7490 -0.7785 -2.1944
  767SOL     OW 2344   1.198   1.903   0.870 -0.3509 -0.7455 -0.3230
  767SOL    HW1 2345   1.224   1.970   0.939 -1.9522 -2.1099  1.0423
  767SOL    HW2 2346   1.270   1.833   0.874 -1.5115 -0.3441  0.7677
  768SOL     OW 2347   2.581   0.717   1.541  0.2714 -0.0575 -0.5832
  768SOL    HW1 2348   2.599   0.633   1.497 -2.2847  0.2772 -0.5196
  768SOL    HW2 2349   2.547   0.771   1.469 -2.9337  0.4632  1.8856
  769SOL     OW 2350   1.580   0.865   1.665 -0.4542  0.3665 -0.0968
  769SOL    HW1 2351   1.500   0.909   1.686  2.1141 -0.0206 -2.2640
  769SOL    HW2 2352   1.627   0.882   1.749  2.6593 -1.7473 -2.0461
  770SOL     OW 2353   1.667   1.322   2.442 -0.0767 -0.5111 -0.0813
  770SOL    HW1 2354   1.644   1.401   2.498 -3.5101 -1.5711 -1.9581
  770SOL    HW2 2355   1.594   1.262   2.471  1.8256  1.4007 -1.4786
  771SOL     OW 2356   2.767   1.937   0.174 -1.6570  0.6856  0.0422
  771SOL    HW1 2357   2.849   1.983   0.198 -0.4634  1.3471 -0.6124
  771SOL    HW2 2358   2.708   2.010   0.181 -1.7811  4.6894 -0.4286
  772SOL     OW 2359   2.056   2.281   0.534 -0.2966  0.1196 -0.3523
  772SOL    HW1 2360   1.958   2.270   0.545  0.8034  0.7332 -1.4985
  772SOL    HW2 2361   2.053   2.290   0.438  1.2166  0.5599 -2.9158
  773SOL     OW 2362   0.531   2.656   2.572  0.3835  0.6531  0.7667
  773SOL    HW1 2363   0.577   2.740   2.602 -0.0752  0.5370 -3.0738
  773SOL    HW2 2364   0.595   2.627   2.506 -1.4888  4.5024  0.8036
  774SOL     OW 2365   2.921   1.640   0.743  0.2724  0.2247  0.1709
  774SOL    HW1 2366   2.982   1.706   0.713 -2.1930 -3.6572  0.8603
  774SOL    HW2 2367   2.837   1.696   0.752 -0.1700 -0.6283  0.3305
  775SOL     OW 2368   1.835   0.163   0.479 -0.2911 -0.3964  0.0884
  775SOL    HW1 2369   1.922   0.176   0.524  2.8818 -1.7177  2.5647
  775SOL    HW2 2370   1.799   0.252   0.483  1.2623 -2.1286  0.4512
  776SOL     OW 2371   1.613   2.242   2.582 -0.7611  0.3986  0.5084
  776SOL    HW1 2372   1.555   2.173   2.616 -1.9708 -2.5596  0.3876
  776SOL    HW2 2373   1.581   2.322   2.630 -1.4708 -0.7439  3.1358
  777SOL     OW 2374   0.610   0.849   0.925 -0.0281  0.3329  0.1897
  777SOL    HW1 2375   0.694   0.876   0.961 -1.0634  2.6970 -0.8810
  777SOL    HW2 2376   0.642   0.807   0.838  0.8726 -2.2100 -2.1710
  778SOL     OW 2377   1.994   0.864   2.771  0.0230  0.9675 -0.6517
  778SOL    HW1 2378   1.989   0.840   2.865  1.2579 -1.8572 -0.6361
  778SOL    HW2 2379   2.077   0.829   2.740  1.3041  1.3184  2.2638
  779SOL     OW 2380   2.645   1.560   1.894 -0.8561 -0.1313  0.2173
  779SOL    HW1 2381   2.680   1.465   1.889  1.6241  1.5725 -0.6979
  779SOL    HW2 2382   2.716   1.602   1.841  0.6952  0.5760  1.1700
  780SOL     OW 2383   2.150   0.013   1.471 -0.9010  0.0328 -0.4225
  780SOL    HW1 2384   2.085   0.063   1.409 -1.0191 -1.0312  1.0235
  780SOL    HW2 2385   2.109  -0.074   1.483  2.1836  0.3386 -0.3852
  781SOL     OW 2386   2.276   2.297   2.519 -0.2172 -0.6842  0.7115
  781SOL    HW1 2387   2.313   2.220   2.472  0.5275  1.8349  1.2252
  781SOL    HW2 2388   2.196   2.333   2.482 -1.2114  0.6958  1.9338
  782SOL     OW 2389   0.302   1.595   0.825 -0.0423 -0.6473 -0.4144
  782SOL    HW1 2390   0.353   1.658   0.873 -3.8849 -0.9293  2.1189
  782SOL    HW2 2391   0.346   1.617   0.738 -2.1471 -1.7453  0.9395
  783SOL     OW 2392   1.557   0.991   1.160 -0.0286 -0.0369 -0.7330
  783SOL    HW1 2393   1.574   0.963   1.068  2.9470  0.2670 -0.6468
  783SOL    HW2 2394   1.620   0.930   1.205 -3.0976 -1.2752  0.8138
  784SOL     OW 2395   1.090   2.715   1.992 -0.1384 -0.0794  0.6855
  784SOL    HW1 2396   1.010   2.765   2.025 -1.5183 -0.0701 -0.7686
  784SOL    HW2 2397   1.097   2.646   2.054 -2.1879  0.8619  3.1989
  785SOL     OW 2398   1.601   0.221   2.131  0.2896 -0.1982  0.2693
  785SOL    HW1 2399   1.518   0.210   2.179  2.3007 -3.2844 -0.4227
  785SOL    HW2 2400   1.625   0.131   2.121 -2.5273  2.0037  1.4097
  786SOL     OW 2401   0.799   1.643   0.887  0.0863  0.1630  0.7456
  786SOL    HW1 2402   0.864   1.699   0.930 -0.5745  0.9330 -0.0672
  786SOL    HW2 2403   0.839   1.562   0.898  0.2722  2.6522 -0.6623
  787SOL     OW 2404   1.329   2.928   0.320  0.1344  0.2455  0.3082
  787SOL    HW1 2405   1.279   2.895   0.244 -0.0146  3.4742 -1.7166
  787SOL    HW2 2406   1.313   2.851   0.384 -1.2026 -1.2957 -1.6864
  788SOL     OW 2407   2.992   2.490   0.025 -0.3449  0.2495 -0.3896
  788SOL    HW1 2408   2.995   2.435  -0.053 -2.0553 -1.6882 -1.4335
  788SOL    HW2 2409   2.909   2.451   0.051  1.0558  2.0673  0.3889
  789SOL     OW 2410   0.226   1.479   1.923  0.0084 -0.0436 -0.3874
  789SOL    HW1 2411   0.172   1.526   1.859 -3.0302  3.0850 -0.2616
  789SOL    HW2 2412   0.312   1.475   1.885 -0.1320 -1.0850 -0.5783
  790SOL     OW 2413   2.568   1.166   2.889 -0.5261 -0.3187  0.2429
  790SOL    HW1 2414   2.640   1.217   2.930  0.8665 -0.9944 -1.5585
  790SOL    HW2 2415   2.508   1.143   2.959  0.2897 -1.0797  1.7358
  791SOL     OW 2416   1.819   2.316   2.820 -0.8429 -0.0564  0.3880
  791SOL    HW1 2417   1.846   2.337   2.720  1.2273 -0.7764 -2.9485
  791SOL    HW2 2418   1.816   2.218   2.814 -0.0425 -1.1988 -1.9450
  792SOL     OW 2419   2.119   1.277   0.954  0.5016 -0.5901  0.1922
  792SOL    HW1 2420   2.109   1.213   0.881  1.9486  3.6797  2.6559
  792SOL    HW2 2421   2.080   1.227   1.027  1.3718  0.7204 -0.9589
  793SOL     OW 2422   1.516   0.779   2.709 -0.1592 -0.0268 -0.0995
  793SOL    HW1 2423   1.602   0.809   2.698  0.1005 -1.6955  1.4230
  793SOL    HW2 2424   1.493   0.770   2.624  2.6847  1.7173  1.1385
  794SOL     OW 2425   1.360   1.857   1.311 -0.6931  0.4381  0.6185
  794SOL    HW1 2426   1.309   1.777   1.339  3.5903  1.0999  0.0194
  794SOL    HW2 2427   1.443   1.804   1.307 -0.2695 -0.9896 -0.6848
  795SOL     OW 2428   1.086   0.402   2.890  0.5387 -0.3829 -0.7206
  795SOL    HW1 2429   1.165   0.338   2.878 -0.0305  1.1356  0.4097
  795SOL    HW2 2430   1.082   0.429   2.987  0.6322 -2.6202 -0.2634
  796SOL     OW 2431   2.763   1.232   0.753 -0.3100 -0.1911 -0.5511
  796SOL    HW1 2432   2.774   1.277   0.839  3.2512  4.0989  3.1836
  796SOL    HW2 2433   2.735   1.310   0.699 -0.5148  1.4885  1.0915
  797SOL     OW 2434   1.735   2.107   0.024 -0.4395 -1.3513  0.3862
  797SOL    HW1 2435   1.816   2.074   0.069  2.8795  1.3725  0.7772
  797SOL    HW2 2436   1.704   2.184   0.077  0.8502  3.2956  0.2624
  798SOL     OW 2437   2.148   1.110   0.716 -0.3519 -0.2346 -0.6042
  798SOL    HW1 2438   2.134   1.017   0.723  2.7604 -0.3656  3.8566
  798SOL    HW2 2439   2.245   1.112   0.741 -0.2830  0.5891  0.8073
  799SOL     OW 2440   1.107   0.711   2.687 -0.2704  1.1678 -0.6688
  799SOL    HW1 2441   1.127   0.614   2.669 -1.3676 -2.3431  0.2546
  799SOL    HW2 2442   1.015   0.710   2.691  1.3271  2.0487 -2.0273
  800SOL     OW 2443   2.153   1.911   1.548  0.2482 -0.3935 -0.3176
  800SOL    HW1 2444   2.061   1.926   1.528  2.6115 -0.5917  2.7875
  800SOL    HW2 2445   2.178   1.997   1.588 -0.8259  2.6643  3.6283
  801SOL     OW 2446   1.807   0.539   2.392  0.2029  0.2466  0.1595
  801SOL    HW1 2447   1.820   0.443   2.388 -3.1657 -1.7057  1.1594
  801SOL    HW2 2448   1.714   0.549   2.372 -3.1868 -0.0717  2.8704
  802SOL     OW 2449   1.224   0.287   1.249  0.1427 -0.7073 -0.3287
  802SOL    HW1 2450   1.147   0.286   1.190 -0.2495  0.7307 -0.4463
  802SOL    HW2 2451   1.219   0.382   1.277  0.3147  0.4259  0.4071
  803SOL     OW 2452   2.288   1.780   2.620 -0.0834  0.0644 -0.4058
  803SOL    HW1 2453   2.219   1.844   2.586 -0.6191 -0.9943  1.1403
  803SOL    HW2 2454   2.287   1.717   2.549 -1.8492 -2.1594  0.5817
  804SOL     OW 2455   1.715   0.695   2.934  0.3370 -0.2311  0.6587
  804SOL    HW1 2456   1.755   0.673   2.847  2.2533 -1.9144  0.6389
  804SOL    HW2 2457   1.651   0.621   2.943 -1.2357  1.0019 -1.0707
  805SOL     OW 2458   1.865   1.572   0.799 -0.3977  0.2855  0.1751
  805SOL    HW1 2459   1.773   1.553   0.830  3.2509 -1.8841 -2.2350
  805SOL    HW2 2460   1.872   1.525   0.713 -1.3135  1.2949  0.9989
  806SOL     OW 2461   2.204   0.914   1.880 -0.8858  0.6659 -0.5531
  806SOL    HW1 2462   2.289   0.954   1.862  0.5744  4.0210  2.1397
  806SOL    HW2 2463   2.228   0.824   1.910 -2.8915 -0.9220  1.1848
  807SOL     OW 2464   0.725   1.952   2.319 -0.8736 -0.5335 -0.3019
  807SOL    HW1 2465   0.786   1.876   2.324  0.6940  1.3398 -1.0793
  807SOL    HW2 2466   0.677   1.933   2.239  0.3781 -5.2966 -0.1793
  808SOL     OW 2467   2.623   2.798   2.388  0.5630 -0.0652  1.0778
  808SOL    HW1 2468   2.543   2.850   2.372  0.6338 -1.3411 -3.4288
  808SOL    HW2 2469   2.683   2.874   2.396 -2.4774  0.4250 -2.1578
  809SOL     OW 2470   1.005   2.411   1.396  0.0302 -0.2295  0.6076
  809SOL    HW1 2471   1.026   2.426   1.484 -0.8716 -0.9177  0.0937
  809SOL    HW2 2472   0.924   2.471   1.380 -3.0083 -0.0891 -1.8095
  810SOL     OW 2473   0.652   1.217   1.269 -0.3625  0.0812  0.9271
  810SOL    HW1 2474   0.746   1.203   1.256 -0.2337 -0.5194  1.4190
  810SOL    HW2 2475   0.608   1.126   1.259  0.2904 -0.2122  2.0119
  811SOL     OW 2476   1.429   2.044   1.505 -0.1442 -0.3299  0.0954
  811SOL    HW1 2477   1.344   2.024   1.556  0.7649 -0.4856  2.3936
  811SOL    HW2 2478   1.425   1.981   1.433  0.4925 -0.3679 -2.6141
  812SOL     OW 2479   0.604   0.963   1.338  0.3335  0.0378  0.6237
  812SOL    HW1 2480   0.622   0.993   1.427  2.6227 -1.1696 -1.9460
  812SOL    HW2 2481   0.663   0.887   1.337 -0.3378 -0.8868  0.0124
  813SOL     OW 2482   2.938   2.828   2.335  0.0332 -0.0806 -0.0695
  813SOL    HW1 2483   3.030   2.797   2.340 -2.8849  2.7754  0.0139
  813SOL    HW2 2484   2.893   2.743   2.366 -1.4374  1.9524 -0.8836
  814SOL     OW 2485   0.169   1.840   2.837  0.4355 -0.0836  0.1293
  814SOL    HW1 2486   0.085   1.795   2.823  1.9843 -2.6467  0.1809
  814SOL    HW2 2487   0.200   1.811   2.925 -1.3456  4.0452 -1.5062
  815SOL     OW 2488   2.074   1.563   0.156 -0.0381 -0.0033  0.1474
  815SOL    HW1 2489   2.129   1.506   0.219  4.5661 -2.1088  2.1355
  815SOL    HW2 2490   1.987   1.518   0.167 -0.2057  1.7593  1.8870
  816SOL     OW 2491   0.968   0.742   0.823 -0.4454  0.4322  0.0734
  816SOL    HW1 2492   1.010   0.828   0.833 -1.3920  0.7424  0.9254
  816SOL    HW2 2493   0.941   0.730   0.909 -0.9513 -0.8531  0.1546
  817SOL     OW 2494   2.448   2.995   0.010  0.1956 -0.2530 -0.2148
  817SOL    HW1 2495   2.383   3.050  -0.037 -0.7235 -0.9156 -1.9292
  817SOL    HW2 2496   2.410   2.907   0.013 -1.8198  2.7650  1.5532
  818SOL     OW 2497   2.715   2.828   0.380 -0.1166  0.0361 -0.3195
  818SOL    HW1 2498   2.645   2.815   0.438  2.2500 -0.7065  0.9854
  818SOL    HW2 2499   2.790   2.821   0.445 -0.7658 -0.8852  1.2946
  819SOL     OW 2500   0.938   1.362   1.444 -0.0267  0.2811 -0.6604
  819SOL    HW1 2501   0.880   1.281   1.472 -0.5977 -3.4959 -0.3932
  819SOL    HW2 2502   0.866   1.432   1.438  4.1358 -3.9135 -2.0339
  820SOL     OW 2503   0.658   0.230   2.561  0.4963  0.3653  0.5002
  820SOL    HW1 2504   0.596   0.188   2.617  1.2476  0.2192 -0.1855
  820SOL    HW2 2505   0.612   0.311   2.548 -2.1623  0.8947 -0.3963
  821SOL     OW 2506   1.700   0.277   1.886 -0.3769  0.4761  0.2465
  821SOL    HW1 2507   1.619   0.303   1.844  1.9652 -0.2144  0.0423
  821SOL    HW2 2508   1.664   0.266   1.979  1.4421 -0.0692  1.4462
  822SOL     OW 2509   1.077   1.360   2.569 -0.3022  0.0834 -0.6241
  822SOL    HW1 2510   1.034   1.442   2.586 -1.4542 -1.0740 -2.4743
  822SOL    HW2 2511   1.022   1.329   2.501  2.4308  0.8080 -0.5828
  823SOL     OW 2512   1.252   2.022   2.487 -0.2466 -0.2830 -0.3798
  823SOL    HW1 2513   1.189   2.059   2.546 -1.7365 -2.0011 -0.7944
  823SOL    HW2 2514   1.229   1.931   2.501 -2.1311  3.1157  0.1788
  824SOL     OW 2515   0.845   2.363   0.579  0.3959  0.5061 -0.4382
  824SOL    HW1 2516   0.884   2.341   0.499  0.2976 -0.1287  1.8460
  824SOL    HW2 2517   0.876   2.450   0.594 -0.5904 -0.6919  1.4828
  825SOL     OW 2518   0.818   0.543   1.763  0.2141 -0.0732  0.0835
  825SOL    HW1 2519   0.866   0.629   1.750  0.3409 -1.7842 -0.7326
  825SOL    HW2 2520   0.748   0.545   1.697 -0.4714 -0.8959  0.0694
  826SOL     OW 2521   1.322   1.038   2.258  0.4886  0.1158 -0.4564
  826SOL    HW1 2522   1.280   0.957   2.217  0.7027  0.8363 -0.1222
  826SOL    HW2 2523   1.279   1.042   2.346  0.9036  0.3506  2.9720
  827SOL     OW 2524   2.382   2.720   1.668 -0.5294  0.1481 -0.6624
  827SOL    HW1 2525   2.432   2.727   1.755 -2.9885 -0.9279 -2.9102
  827SOL    HW2 2526   2.444   2.783   1.621 -0.8859 -0.2574  2.1179
  828SOL     OW 2527   2.916   2.788   0.551 -0.9704  0.2612 -0.2646
  828SOL    HW1 2528   2.876   2.776   0.638  2.4679  0.7416  1.9241
  828SOL    HW2 2529   2.970   2.876   0.563  2.7282  1.7215 -0.3508
  829SOL     OW 2530   1.346   1.482   1.133  0.6015  0.0467  0.0906
  829SOL    HW1 2531   1.269   1.486   1.197  3.6444  0.9654  1.1446
  829SOL    HW2 2532   1.405   1.419   1.184 -0.0554 -5.1649  4.1664
  830SOL     OW 2533   2.310   1.519   0.915  0.2819  0.1614  0.1385
  830SOL    HW1 2534   2.264   1.536   0.997  2.5329 -1.4271 -0.8673
  830SOL    HW2 2535   2.276   1.440   0.878  1.3608 -3.1122  3.9635
  831SOL     OW 2536   2.341   0.417   0.773  0.6381  0.1390  0.0408
  831SOL    HW1 2537   2.423   0.388   0.726  1.2591  0.4085 -2.2811
  831SOL    HW2 2538   2.377   0.417   0.862 -0.9520 -2.6590  1.7765
  832SOL     OW 2539   2.806   1.662   1.374  0.5837 -0.5369 -0.3009
  832SOL    HW1 2540   2.734   1.693   1.432 -1.0791 -2.4422 -0.6871
  832SOL    HW2 2541   2.800   1.724   1.297 -2.3253 -1.0257 -0.5635
  833SOL     OW 2542   2.677   2.619   2.157  0.3297  0.0148  0.2910
  833SOL    HW1 2543   2.716   2.539   2.192 -1.8550 -1.6330 -1.1516
  833SOL    HW2 2544   2.640   2.659   2.231  0.3442 -1.5233 -1.2070
  834SOL     OW 2545   2.742   0.049   2.290 -0.7055  0.0428  0.1364
  834SOL    HW1 2546   2.746   0.121   2.357 -1.7156  0.3906 -0.5952
  834SOL    HW2 2547   2.821   0.000   2.315 -0.4025 -0.9356 -1.7302
  835SOL     OW 2548   0.830   1.803   2.810 -0.0517  0.3270  0.2265
  835SOL    HW1 2549   0.826   1.843   2.895  0.5912 -3.7872  0.7972
  835SOL    HW2 2550   0.743   1.752   2.806 -1.0884  2.2069  0.0398
  836SOL     OW 2551   2.870   0.748   0.033 -0.2838 -1.0160  0.0375
  836SOL    HW1 2552   2.925   0.766   0.113  1.9279 -1.6219 -0.7852
  836SOL    HW2 2553   2.897   0.668  -0.014 -2.0702  2.6910 -1.1774
  837SOL     OW 2554   2.942   0.916   2.738  0.9621  0.4833 -0.0160
  837SOL    HW1 2555   2.859   0.893   2.785  0.3290  1.2556 -0.3607
  837SOL    HW2 2556   3.011   0.882   2.803 -1.6462 -1.5783 -0.5504
  838SOL     OW 2557   2.122   2.210   2.708 -1.3181  0.8593 -0.6118
  838SOL    HW1 2558   2.166   2.240   2.629 -0.7600 -0.0089  1.8882
  838SOL    HW2 2559   2.197   2.177   2.758  1.0419  0.3004  2.0808
  839SOL     OW 2560   0.585   0.333   1.431  0.4973 -0.0618 -0.3397
  839SOL    HW1 2561   0.557   0.322   1.522  1.8854 -0.9258 -0.9182
  839SOL    HW2 2562   0.592   0.245   1.397 -0.6682  0.2321 -1.4830
  840SOL     OW 2563   2.690   0.859   2.017 -0.6128  0.4393  0.1631
  840SOL    HW1 2564   2.732   0.949   2.043 -0.9093 -2.0944 -1.9461
  840SOL    HW2 2565   2.663   0.877   1.922  0.5254  3.4251 -0.2774
  841SOL     OW 2566   1.767   2.572   2.488  0.4620  0.1773 -0.2967
  841SOL    HW1 2567   1.776   2.591   2.582 -0.8540 -0.0098 -0.7124
  841SOL    HW2 2568   1.820   2.646   2.462 -2.0330 -1.6075 -1.2129
  842SOL     OW 2569   2.592   0.244   0.101  0.0820  0.4233 -0.0056
  842SOL    HW1 2570   2.635   0.213   0.017  0.1025  0.4531 -1.8447
  842SOL    HW2 2571   2.563   0.159   0.145 -1.0003 -2.3242 -3.4101
  843SOL     OW 2572   0.566   2.970   2.364  0.3793 -0.1753  0.2087
  843SOL    HW1 2573   0.602   3.025   2.296  2.6557  0.9499  1.3452
  843SOL    HW2 2574   0.651   2.957   2.402  1.0410 -0.6324 -3.7811
  844SOL     OW 2575   1.101   2.259   2.689 -1.1706  0.5989 -0.0275
  844SOL    HW1 2576   1.126   2.212   2.768  0.0345  1.4948  1.5962
  844SOL    HW2 2577   1.007   2.243   2.682  1.1328  0.2415  1.9793
  845SOL     OW 2578   2.202   2.735   0.021  0.3091  0.4155  0.1104
  845SOL    HW1 2579   2.272   2.728   0.088  0.9758 -1.1137 -1.0002
  845SOL    HW2 2580   2.251   2.707  -0.063  0.8768 -0.0489 -3.0692
  846SOL     OW 2581   0.915   1.360   0.393 -0.0913 -0.4000 -0.1527
  846SOL    HW1 2582   0.987   1.324   0.338 -0.8905 -1.3741 -0.3017
  846SOL    HW2 2583   0.939   1.353   0.489  1.4853  0.2500  1.3266
  847SOL     OW 2584   2.974   1.383   2.978 -0.0967 -0.0794  0.5060
  847SOL    HW1 2585   2.989   1.471   3.016  1.2400  0.9537 -2.4715
  847SOL    HW2 2586   2.956   1.411   2.884 -1.0308 -1.2375 -1.3731
  848SOL     OW 2587   0.336   1.422   2.170  0.0533 -0.3575  0.4216
  848SOL    HW1 2588   0.278   1.443   2.090  0.8016  1.0420  2.8568
  848SOL    HW2 2589   0.376   1.338   2.139  0.5432 -0.7843  0.7732
  849SOL     OW 2590   2.284   0.645   2.829  0.4566  0.4496 -0.0038
  849SOL    HW1 2591   2.346   0.574   2.808  0.2646 -0.2199  0.4754
  849SOL    HW2 2592   2.199   0.597   2.824  2.4192  0.4972  3.8109
  850SOL     OW 2593   2.805   1.106   0.373 -1.1239  0.0093 -0.1125
  850SOL    HW1 2594   2.823   1.060   0.459 -0.1097 -0.1025 -0.2974
  850SOL    HW2 2595   2.876   1.171   0.377  2.4858  1.4618 -0.0697
  851SOL     OW 2596   1.812   1.851   1.230 -0.6136  0.2521  0.7140
  851SOL    HW1 2597   1.852   1.809   1.147  3.6665  1.9993 -1.7106
  851SOL    HW2 2598   1.819   1.787   1.300  2.2380 -1.0749  0.2566
  852SOL     OW 2599   2.891   2.020   2.159  0.1965 -0.2849 -0.0126
  852SOL    HW1 2600   2.976   2.053   2.187 -1.8536 -0.7224 -0.2329
  852SOL    HW2 2601   2.878   2.038   2.067  2.0010 -0.1547  0.0789
  853SOL     OW 2602   0.057   0.258   0.019 -0.1520 -0.1290 -0.4127
  853SOL    HW1 2603   0.074   0.167   0.017 -1.5860  1.8976  0.8472
  853SOL    HW2 2604   0.111   0.283  -0.059 -0.3993 -0.9428  0.7440
  854SOL     OW 2605   1.140   2.888   2.728  0.5158 -0.2205 -0.3419
  854SOL    HW1 2606   1.100   2.802   2.760  2.0129  1.0755 -0.2570
  854SOL    HW2 2607   1.075   2.887   2.648 -0.5701  2.6641 -0.2603
  855SOL     OW 2608   2.438   1.329   2.583  0.2051  0.2274 -0.1892
  855SOL    HW1 2609   2.458   1.235   2.606  0.2420  0.7735  1.4888
  855SOL    HW2 2610   2.356   1.330   2.633 -1.0736 -1.0252 -0.0211
  856SOL     OW 2611   1.722   1.766   1.527  0.5956  0.7165  0.4542
  856SOL    HW1 2612   1.671   1.768   1.613 -1.3409 -2.5790  0.8884
  856SOL    HW2 2613   1.782   1.840   1.535  2.4747  0.3777 -3.3897
  857SOL     OW 2614   2.594   2.229   2.428 -0.1455  0.0314 -0.6588
  857SOL    HW1 2615   2.546   2.271   2.346 -0.7618  2.0074 -0.8073
  857SOL    HW2 2616   2.553   2.142   2.414 -0.2813  1.1313  0.2344
  858SOL     OW 2617   0.920   1.809   1.525 -0.3415  0.1251  0.0587
  858SOL    HW1 2618   0.943   1.733   1.576 -0.4819  1.4953  1.3786
  858SOL    HW2 2619   0.858   1.855   1.586  0.1901 -1.5845 -1.5234
  859SOL     OW 2620   1.358   0.282   2.342  0.3684 -0.5050  0.5081
  859SOL    HW1 2621   1.339   0.323   2.419 -0.2431 -0.6501  0.7271
  859SOL    HW2 2622   1.434   0.223   2.365  0.0556 -3.3065 -0.3507
  860SOL     OW 2623   1.235   1.563   2.079 -0.7124  0.6223  1.1960
  860SOL    HW1 2624   1.292   1.569   2.001 -0.9508 -3.5481 -0.3176
  860SOL    HW2 2625   1.286   1.525   2.149 -0.1141 -3.3793  0.0616
  861SOL     OW 2626   1.355   1.131   1.412 -0.5841  0.3176 -0.2783
  861SOL    HW1 2627   1.308   1.130   1.322  0.8415  2.3841 -1.4525
  861SOL    HW2 2628   1.451   1.129   1.399  0.5544  0.4352  1.7757
  862SOL     OW 2629   1.891   0.224   0.144 -0.3176 -0.0283  0.0394
  862SOL    HW1 2630   1.845   0.158   0.192 -1.0336  0.5864 -3.0185
  862SOL    HW2 2631   1.864   0.306   0.190  1.8462  0.4695 -1.9760
  863SOL     OW 2632   2.397   1.087   0.765 -0.5337 -0.1624 -0.0481
  863SOL    HW1 2633   2.477   1.028   0.761 -4.1931 -0.6514  1.0495
  863SOL    HW2 2634   2.412   1.138   0.853  1.7654 -2.0291  1.3930
  864SOL     OW 2635   1.331   2.656   0.493  0.5628 -0.1696 -0.6696
  864SOL    HW1 2636   1.370   2.665   0.584  3.4189 -0.4611 -0.4135
  864SOL    HW2 2637   1.389   2.584   0.462 -0.4657 -1.4967  0.5072
  865CL      CL 2638   0.523   1.092   2.424  0.0835 -0.1035  0.1603
   3.00000   3.00000   3.00000
