Protein in water
 2638
    1ACE    CH3    1   1.402   1.477   1.234  0.8216  0.0888 -0.6823
    1ACE   HH31    2   1.403   1.367   1.241 -3.8259  3.2803 -0.6741
    1ACE   HH32    3   1.388   1.518   1.341  1.2922 -1.5622  3.1939
    1ACE   HH33    4   1.305   1.502   1.189 -1.2206 -1.0405  0.2967
    1ACE      C    5   1.514   1.530   1.156  0.4934  0.0126 -0.4411
    1ACE      O    6   1.557   1.461   1.064  0.0116 -0.2717  0.6437
    2ALA      N    7   1.562   1.654   1.197  0.2399  0.1509  0.5589
    2ALA     HN    8   1.525   1.685   1.284 -0.8246  2.3252  0.4809
    2ALA     CA    9   1.671   1.722   1.133 -0.4194 -0.1339 -0.1033
    2ALA     HA   10   1.725   1.643   1.074 -0.9950  1.0745  1.0321
    2ALA     CB   11   1.637   1.832   1.038  0.0839 -0.1518  0.1668
    2ALA    HB1   12   1.568   1.914   1.080 -0.9779  0.5092 -0.1791
    2ALA    HB2   13   1.733   1.879   0.991 -0.1864 -0.2793 -0.4898
    2ALA    HB3   14   1.585   1.786   0.951  0.4415 -0.0479 -0.4827
    2ALA      C   15   1.769   1.772   1.236  0.0410 -0.4905  0.0698
    2ALA      O   16   1.850   1.856   1.214  0.1217  0.2440  0.8621
    3ARG      N   17   1.764   1.707   1.351  0.1777 -0.1109 -0.2931
    3ARG     HN   18   1.686   1.649   1.362 -1.3304  2.8959 -0.4120
    3ARG     CA   19   1.857   1.721   1.457 -0.7377  0.5445 -0.4616
    3ARG     HA   20   1.940   1.792   1.451  1.8295 -2.2277  0.1148
    3ARG     CB   21   1.768   1.755   1.581  0.0067  0.2181  0.1985
    3ARG    HB1   22   1.705   1.837   1.565 -3.2025 -0.1650  0.2383
    3ARG    HB2   23   1.691   1.668   1.596  1.0054 -1.4092 -3.6401
    3ARG     CG   24   1.854   1.771   1.703 -0.6651 -0.1759  0.0055
    3ARG    HG1   25   1.906   1.678   1.714  2.3345  0.9594 -2.1171
    3ARG    HG2   26   1.935   1.847   1.687  1.1166 -0.6418  0.2337
    3ARG     CD   27   1.768   1.793   1.825 -0.4907  0.4800 -0.6594
    3ARG    HD1   28   1.696   1.883   1.800 -0.5289  1.4201  0.2895
    3ARG    HD2   29   1.720   1.700   1.857  1.5759  0.0768 -0.2152
    3ARG     NE   30   1.864   1.841   1.916  0.6914 -0.2806  0.1018
    3ARG     HE   31   1.960   1.835   1.892  0.0824 -3.6821  1.1242
    3ARG     CZ   32   1.834   1.869   2.045  0.1717  0.2195  0.1011
    3ARG    NH1   33   1.715   1.855   2.101  0.2957  0.0694  0.4082
    3ARG   HH11   34   1.636   1.834   2.039 -1.4270  0.2115 -0.5106
    3ARG   HH12   35   1.691   1.892   2.191  0.8667  1.2864  0.1261
    3ARG    NH2   36   1.928   1.912   2.127 -0.7120 -0.0846 -0.1038
    3ARG   HH21   37   2.014   1.916   2.077  1.5034  0.2715 -3.1000
    3ARG   HH22   38   1.900   1.927   2.219 -1.7664 -1.2406  3.4975
    3ARG      C   39   1.917   1.581   1.463  0.6274  0.1237  0.1126
    3ARG      O   40   1.847   1.483   1.449  0.6681  0.1528  0.5231
    4ASN      N   41   2.048   1.565   1.480 -0.4839 -0.0171 -0.6879
    4ASN     HN   42   2.098   1.645   1.504 -0.7398  1.2322  1.1111
    4ASN     CA   43   2.124   1.444   1.488 -0.8258 -0.0414 -0.3976
    4ASN     HA   44   2.082   1.370   1.420  0.0673 -2.2470 -3.0965
    4ASN     CB   45   2.268   1.465   1.424  0.0968 -0.1069 -0.4743
    4ASN    HB1   46   2.316   1.364   1.414 -0.9897  0.4318  0.1982
    4ASN    HB2   47   2.332   1.525   1.489  0.9207 -1.6196  0.5017
    4ASN     CG   48   2.256   1.531   1.287 -0.2140 -0.0836 -0.2414
    4ASN    OD1   49   2.194   1.467   1.202  0.1071  0.5088 -0.8761
    4ASN    ND2   50   2.296   1.654   1.270  0.2894 -0.4074 -0.5513
    4ASN   HD21   51   2.259   1.712   1.194  3.0944  1.0598 -2.1149
    4ASN   HD22   52   2.360   1.696   1.331  1.4314  1.4797 -1.0436
    4ASN      C   53   2.131   1.373   1.625  0.0492  0.0693 -0.1296
    4ASN      O   54   2.175   1.260   1.635 -0.1034  0.0469  0.3916
    5CT3      N   55   2.083   1.441   1.731 -0.1028  0.1008  0.3364
    5CT3     HN   56   2.062   1.537   1.705  1.1883 -0.3226  0.0641
    5CT3    CH3   57   2.056   1.394   1.858  0.6110  0.3719 -0.2163
    5CT3   HH31   58   2.119   1.447   1.928 -2.2728  1.9649 -1.0132
    5CT3   HH32   59   1.949   1.415   1.879  1.2352  2.5452  0.5765
    5CT3   HH33   60   2.074   1.286   1.865  2.4354 -3.0408  1.4221
    6SOL     OW   61   0.671   2.353   0.209  0.3293  0.0505 -0.0148
    6SOL    HW1   62   0.631   2.382   0.294  1.3275  0.0729 -1.6148
    6SOL    HW2   63   0.672   2.441   0.157  0.5358  1.1081 -0.2091
    7SOL     OW   64   1.764   0.322   0.785  0.0192  0.6464  0.0543
    7SOL    HW1   65   1.803   0.264   0.718 -2.7695 -1.7986 -0.7996
    7SOL    HW2   66   1.680   0.354   0.739 -1.4215  0.0751  0.1566
    8SOL     OW   67   0.098   0.196   1.931 -0.0836 -0.1701  0.2095
    8SOL    HW1   68   0.085   0.098   1.928 -0.1206 -0.3992 -1.3270
    8SOL    HW2   69   0.115   0.211   2.023 -1.1328  0.1690 -0.3165
    9SOL     OW   70   2.603   2.393   0.727 -0.3398 -0.2165 -0.2080
    9SOL    HW1   71   2.562   2.466   0.675 -0.7266 -0.5009  0.4805
    9SOL    HW2   72   2.583   2.327   0.652  1.4883  1.8550 -1.1971
   10SOL     OW   73   1.656   1.166   2.334 -0.1409 -0.3673  0.9849
   10SOL    HW1   74   1.695   1.251   2.369 -1.1343 -1.0865  1.1888
   10SOL    HW2   75   1.561   1.175   2.358  1.2557  1.7957  0.5778
   11SOL     OW   76   0.526   0.550   1.392 -0.2737  0.5438 -0.7731
   11SOL    HW1   77   0.576   0.546   1.305  0.5006 -1.7126 -0.6551
   11SOL    HW2   78   0.602   0.523   1.450  0.8930 -0.2760  0.9743
   12SOL     OW   79   2.283   2.468   0.902  0.6631  0.2186  0.1024
   12SOL    HW1   80   2.280   2.377   0.938  1.9329 -0.6841 -4.3189
   12SOL    HW2   81   2.369   2.494   0.939  2.3518  1.2826 -0.3427
   13SOL     OW   82   2.917   0.668   0.823 -0.0405  0.2462  0.5206
   13SOL    HW1   83   2.975   0.618   0.878  2.2428 -0.6049  0.2098
   13SOL    HW2   84   2.867   0.593   0.782  0.9031 -2.0573  0.8134
   14SOL     OW   85   1.373   0.262   0.995  0.5193 -0.2602  0.1675
   14SOL    HW1   86   1.469   0.233   0.987 -0.2855  0.7599 -1.0175
   14SOL    HW2   87   1.365   0.234   1.087  0.5252 -1.4926  2.0070
   15SOL     OW   88   1.584   2.553   0.177  0.3215  0.2256  0.3761
   15SOL    HW1   89   1.609   2.501   0.100  1.7572 -1.6276 -0.3642
   15SOL    HW2   90   1.486   2.553   0.167 -0.7111 -2.0764 -2.0368
   16SOL     OW   91   0.675   1.795   0.336 -0.8882 -0.2795 -0.0386
   16SOL    HW1   92   0.676   1.779   0.433 -1.5406 -1.9549  1.0785
   16SOL    HW2   93   0.719   1.720   0.301 -0.1983  1.7540  1.7649
   17SOL     OW   94   0.508   1.640   1.207 -0.2090 -0.3708 -0.0526
   17SOL    HW1   95   0.458   1.690   1.146 -1.6996 -1.0528 -1.2277
   17SOL    HW2   96   0.551   1.706   1.268  1.5738 -0.7309 -0.8941
   18SOL     OW   97   0.989   1.426   0.057 -0.2077 -0.5589  0.1965
   18SOL    HW1   98   0.905   1.381   0.049 -1.8643 -0.7066  0.3077
   18SOL    HW2   99   0.985   1.423   0.151 -1.4933  1.2532 -0.2859
   19SOL     OW  100   1.593   2.990   1.803  0.0889  0.1438 -0.0393
   19SOL    HW1  101   1.581   2.949   1.715 -0.0735 -0.0528  0.5154
   19SOL    HW2  102   1.552   2.920   1.858  0.3955  1.3236  1.1568
   20SOL     OW  103   0.717   2.896   1.754  0.3119 -0.2432 -0.8870
   20SOL    HW1  104   0.666   2.977   1.763  1.0401 -0.8136  1.1458
   20SOL    HW2  105   0.732   2.880   1.852 -1.6076 -0.4521 -1.9996
   21SOL     OW  106   1.985   2.906   2.575  0.2433 -0.2225  0.2381
   21SOL    HW1  107   1.931   2.892   2.659 -0.3178  1.1747  1.0803
   21SOL    HW2  108   2.058   2.952   2.614 -1.2573 -0.0502  2.3473
   22SOL     OW  109   2.707   2.502   1.622  0.2898 -1.0132 -0.5969
   22SOL    HW1  110   2.799   2.519   1.637 -0.5888 -0.2234  1.0987
   22SOL    HW2  111   2.664   2.516   1.712 -0.5503 -2.3019  0.5530
   23SOL     OW  112   0.695   2.442   2.716  0.0389 -0.0760  0.2721
   23SOL    HW1  113   0.776   2.488   2.728  0.2505 -1.5761  1.0846
   23SOL    HW2  114   0.625   2.496   2.754  2.8951 -0.7244  3.2359
   24SOL     OW  115   2.957   1.655   0.538  0.1634 -0.7951  0.0754
   24SOL    HW1  116   2.999   1.723   0.486  0.4771 -2.3307  0.0305
   24SOL    HW2  117   2.892   1.626   0.473  1.1896  1.4439  0.0897
   25SOL     OW  118   2.029   2.267   2.411 -0.3930 -0.3949  0.3611
   25SOL    HW1  119   1.934   2.255   2.435 -0.7880  0.5837  2.5288
   25SOL    HW2  120   2.017   2.296   2.321  1.4425 -0.1233 -1.4582
   26SOL     OW  121   2.434   0.891   2.614 -0.3242 -0.0628 -0.5242
   26SOL    HW1  122   2.514   0.936   2.584 -0.7658  0.4355  1.7549
   26SOL    HW2  123   2.443   0.806   2.567  1.1809 -1.3349  0.1241
   27SOL     OW  124   2.041   0.381   0.021  0.1006 -0.4822  0.3621
   27SOL    HW1  125   2.040   0.410  -0.071  2.4765  0.8448 -0.3811
   27SOL    HW2  126   1.973   0.309   0.016  3.7379 -0.5612 -2.0931
   28SOL     OW  127   0.584   1.074   0.445 -1.2596 -0.1748 -0.3105
   28SOL    HW1  128   0.547   1.142   0.382 -0.0917  1.1440 -1.4396
   28SOL    HW2  129   0.549   1.113   0.527 -2.1243  1.1148  0.4333
   29SOL     OW  130   0.896   0.192   0.673 -0.4255  0.1384  0.4862
   29SOL    HW1  131   0.825   0.175   0.738 -3.1071  0.6230  0.8700
   29SOL    HW2  132   0.861   0.264   0.619 -0.8218  0.4153 -0.2923
   30SOL     OW  133   1.762   1.624   0.170  0.8352  0.1530  0.0494
   30SOL    HW1  134   1.699   1.702   0.178 -0.8634 -1.4855  2.4944
   30SOL    HW2  135   1.767   1.600   0.261  2.6206  1.6092 -0.5812
   31SOL     OW  136   1.052   1.017   2.372  0.4012 -0.1130  0.6505
   31SOL    HW1  137   1.105   1.033   2.448  1.8806  0.9097 -3.2351
   31SOL    HW2  138   1.118   1.044   2.303 -1.9144  4.7139  2.7654
   32SOL     OW  139   1.884   1.359   0.713 -0.1266  0.0971 -0.7741
   32SOL    HW1  140   1.800   1.377   0.669 -1.1141  1.9469  1.3662
   32SOL    HW2  141   1.905   1.444   0.768  1.5249  0.3101 -0.9147
   33SOL     OW  142   0.946   0.764   2.972  0.6484 -0.0175  0.3204
   33SOL    HW1  143   1.001   0.786   2.889 -0.1867  2.2794 -1.0743
   33SOL    HW2  144   0.876   0.697   2.946  0.7428  2.3493 -2.4235
   34SOL     OW  145   1.010   1.012   0.767  0.2022 -0.4292  0.0367
   34SOL    HW1  146   0.941   0.963   0.823 -1.9638  0.3070  0.5521
   34SOL    HW2  147   0.980   0.999   0.676  1.8171  2.8578  2.0182
   35SOL     OW  148   2.284   1.598   0.350  0.6974  0.4906 -0.5017
   35SOL    HW1  149   2.211   1.605   0.416 -0.7853 -0.3186 -0.4895
   35SOL    HW2  150   2.315   1.505   0.366 -0.2802  0.1068 -2.1498
   36SOL     OW  151   2.843   1.966   2.960  0.3636  0.1090 -0.1963
   36SOL    HW1  152   2.856   1.876   2.927 -2.3230 -2.7155 -1.9903
   36SOL    HW2  153   2.782   1.952   3.039  0.8471 -0.8162  0.8517
   37SOL     OW  154   2.048   2.179   1.791 -0.2084 -0.2449 -0.5733
   37SOL    HW1  155   2.030   2.255   1.844 -0.0069 -0.8276 -1.1132
   37SOL    HW2  156   1.982   2.189   1.727 -0.5419  1.7951  1.6164
   38SOL     OW  157   2.286   2.802   2.219  0.6178 -0.5962 -0.8680
   38SOL    HW1  158   2.220   2.740   2.189 -1.0912  3.2025 -2.0853
   38SOL    HW2  159   2.268   2.818   2.318  0.0876  4.4774 -2.0190
   39SOL     OW  160   1.372   2.125   2.745  0.1972  0.0760 -0.4459
   39SOL    HW1  161   1.376   2.118   2.841 -2.4082  0.6369  0.1906
   39SOL    HW2  162   1.300   2.056   2.730 -2.0310 -1.0639 -2.0639
   40SOL     OW  163   1.079   2.246   1.662  0.1123  0.2868 -0.7591
   40SOL    HW1  164   0.991   2.282   1.695 -0.8683  1.9922 -2.3353
   40SOL    HW2  165   1.057   2.242   1.565  0.5572  1.6622  1.6266
   41SOL     OW  166   1.739   1.412   0.001 -0.6714 -0.0857 -0.1538
   41SOL    HW1  167   1.680   1.460  -0.066 -0.6343  0.4304  0.1856
   41SOL    HW2  168   1.763   1.496   0.056 -2.4296  1.1620 -0.2580
   42SOL     OW  169   2.651   1.535   1.202 -0.3717 -0.1935 -0.4870
   42SOL    HW1  170   2.618   1.617   1.163 -0.2026  0.2365  2.7030
   42SOL    HW2  171   2.592   1.475   1.160 -0.4298  1.6931  1.0562
   43SOL     OW  172   2.760   0.759   2.423  0.3631 -0.5038 -0.2587
   43SOL    HW1  173   2.716   0.738   2.338 -1.1878 -2.3091 -1.5979
   43SOL    HW2  174   2.693   0.723   2.487  1.8892  0.0694  0.1668
   44SOL     OW  175   0.273   0.428   0.877 -0.1570 -0.3640 -0.1562
   44SOL    HW1  176   0.296   0.497   0.812 -3.3979 -1.8225  0.3612
   44SOL    HW2  177   0.218   0.488   0.942  0.0655  1.3070  0.8218
   45SOL     OW  178   2.233   1.747   1.658 -0.4222 -0.4339  0.0092
   45SOL    HW1  179   2.325   1.762   1.655 -1.7915 -0.6900 -0.1243
   45SOL    HW2  180   2.197   1.825   1.608 -2.3638 -1.4726 -1.9528
   46SOL     OW  181   1.108   2.585   1.356 -0.0706  0.1941  0.2750
   46SOL    HW1  182   1.007   2.564   1.353 -0.4703 -1.6639  0.4239
   46SOL    HW2  183   1.137   2.573   1.269 -1.8338 -2.3732  0.5178
   47SOL     OW  184   1.891   2.365   1.012  0.4779 -0.1799 -0.2980
   47SOL    HW1  185   1.863   2.322   0.927  1.1246  0.8795 -0.7665
   47SOL    HW2  186   1.800   2.363   1.049  2.2760  2.3586 -1.0709
   48SOL     OW  187   0.082   1.946   1.348 -0.1296 -0.0716  0.3715
   48SOL    HW1  188   0.015   1.895   1.403  1.5401 -0.4045  2.3036
   48SOL    HW2  189   0.031   2.021   1.324 -1.2983 -0.5897  1.0241
   49SOL     OW  190   1.866   0.220   1.255  0.5289 -0.1767  0.1988
   49SOL    HW1  191   1.832   0.129   1.249 -0.9714 -0.6381 -2.7207
   49SOL    HW2  192   1.872   0.249   1.162  1.2256  2.7376 -2.3735
   50SOL     OW  193   1.244   0.018   1.632  0.3586  0.1257  0.0273
   50SOL    HW1  194   1.225  -0.057   1.568  0.2750 -0.4985  0.0357
   50SOL    HW2  195   1.213  -0.010   1.720 -0.9809  0.2321  0.2758
   51SOL     OW  196   2.867   0.594   1.743  0.2229  0.3213  0.2210
   51SOL    HW1  197   2.895   0.587   1.650  0.7349 -3.1797  0.1387
   51SOL    HW2  198   2.875   0.496   1.761  0.1614 -1.1242  0.6789
   52SOL     OW  199   0.321   0.241   2.347 -0.1627  0.0844  0.4698
   52SOL    HW1  200   0.288   0.232   2.437  1.6253  2.1969  1.1406
   52SOL    HW2  201   0.233   0.234   2.304 -0.8842  2.3127 -0.0098
   53SOL     OW  202   1.553   0.467   0.649 -0.3418  0.0013 -0.0490
   53SOL    HW1  203   1.515   0.491   0.734 -0.0103  0.4613  3.5719
   53SOL    HW2  204   1.488   0.403   0.624 -0.2699  0.2726 -0.5548
   54SOL     OW  205   0.561   2.742   2.015  0.0132 -0.4262  0.7848
   54SOL    HW1  206   0.573   2.700   2.102  1.3933 -0.4172  0.2006
   54SOL    HW2  207   0.611   2.829   2.019 -4.3794  0.7489  2.0087
   55SOL     OW  208   2.992   0.875   0.093  0.3363  0.3410  0.1386
   55SOL    HW1  209   2.901   0.901   0.081  0.4514 -1.7002 -2.0931
   55SOL    HW2  210   2.995   0.843   0.181 -0.3541  1.3229  1.1983
   56SOL     OW  211   1.781   2.883   0.812 -1.1068 -0.3620  0.0358
   56SOL    HW1  212   1.759   2.874   0.717 -3.0980 -1.2868  0.6434
   56SOL    HW2  213   1.867   2.918   0.789 -2.2026  0.7634 -0.8315
   57SOL     OW  214   1.629   2.449   2.930  0.4158  0.3080 -0.3201
   57SOL    HW1  215   1.592   2.459   2.837  0.1257  0.1020  0.8629
   57SOL    HW2  216   1.722   2.429   2.908 -1.1794 -0.2986 -1.4405
   58SOL     OW  217   1.273   0.443   1.244  0.0654 -0.0847 -0.5088
   58SOL    HW1  218   1.327   0.505   1.191  1.3081 -1.5534 -1.2728
   58SOL    HW2  219   1.292   0.476   1.337 -0.7154 -0.4145  0.6150
   59SOL     OW  220   1.318   0.713   0.495  0.3670  0.4459 -0.0259
   59SOL    HW1  221   1.415   0.705   0.481 -1.3517 -1.9755 -0.7450
   59SOL    HW2  222   1.315   0.741   0.589  0.6156 -1.0887  0.1450
   60SOL     OW  223   0.330   2.055   2.860  0.6459 -0.1010 -0.0089
   60SOL    HW1  224   0.413   2.091   2.897  3.5208 -2.0273  0.0106
   60SOL    HW2  225   0.260   2.100   2.910  2.3725 -0.7047  1.1082
   61SOL     OW  226   0.404   1.627   0.810  0.2737  0.1188  0.5468
   61SOL    HW1  227   0.434   1.602   0.719 -1.4077 -0.6723  1.9386
   61SOL    HW2  228   0.308   1.595   0.815 -1.4413  2.5241 -0.1414
   62SOL     OW  229   2.264   0.107   1.883  0.2623  0.4019 -0.4849
   62SOL    HW1  230   2.242   0.109   1.979 -2.9852 -1.0208  0.8715
   62SOL    HW2  231   2.194   0.046   1.855 -0.6795 -0.7892  0.7417
   63SOL     OW  232   0.958   2.556   2.830  0.3330  0.2029  0.1644
   63SOL    HW1  233   0.972   2.462   2.828 -0.7904 -0.1901 -2.0906
   63SOL    HW2  234   1.044   2.597   2.821  2.6681  1.1742  0.8465
   64SOL     OW  235   2.433   1.565   2.736  0.2460  0.3168  0.7396
   64SOL    HW1  236   2.439   1.475   2.776 -3.1549 -0.6113  1.1318
   64SOL    HW2  237   2.508   1.605   2.782 -0.0489 -2.4561 -2.8860
   65SOL     OW  238   2.948   0.442   2.356 -0.3164  0.2504  0.8773
   65SOL    HW1  239   2.856   0.406   2.365  0.7121 -0.3511 -1.9590
   65SOL    HW2  240   2.964   0.460   2.451  0.3933 -1.4032 -2.0417
   66SOL     OW  241   2.767   2.011   0.355 -0.0869 -0.1123  0.3316
   66SOL    HW1  242   2.859   1.989   0.327 -0.5733 -0.1700 -1.6493
   66SOL    HW2  243   2.712   2.020   0.280  2.0592 -0.1987  1.0125
   67SOL     OW  244   2.468   0.300   0.737  0.0885  0.1396  0.6703
   67SOL    HW1  245   2.392   0.320   0.797 -0.8293 -1.8069  1.9353
   67SOL    HW2  246   2.539   0.320   0.801 -0.7739 -0.0092  0.6423
   68SOL     OW  247   2.009   1.613   2.722 -0.6044  0.4522 -0.7917
   68SOL    HW1  248   2.012   1.705   2.755 -1.0630 -0.0735  0.1036
   68SOL    HW2  249   2.067   1.611   2.640 -0.8914  0.6223  3.1104
   69SOL     OW  250   0.565   1.716   0.001 -0.2912 -0.1678 -0.0111
   69SOL    HW1  251   0.639   1.652   0.014 -3.6223  3.1875  0.4177
   69SOL    HW2  252   0.605   1.786  -0.058  0.2648  2.4569  1.8690
   70SOL     OW  253   2.075   1.002   1.726 -0.1500  0.1357 -0.3200
   70SOL    HW1  254   2.132   0.929   1.708  0.0028 -0.5489 -0.8535
   70SOL    HW2  255   2.112   1.065   1.667  0.8456  2.6028  1.3251
   71SOL     OW  256   2.048   2.386   0.134 -0.3435 -0.0881 -0.3377
   71SOL    HW1  257   2.038   2.425   0.048  1.3383  0.0754 -1.3285
   71SOL    HW2  258   2.150   2.369   0.135  4.3642 -0.2102 -1.1061
   72SOL     OW  259   2.744   0.140   1.809  0.0905 -0.0171  0.1125
   72SOL    HW1  260   2.666   0.162   1.755 -0.2495 -0.5782  3.0863
   72SOL    HW2  261   2.776   0.064   1.759 -0.8434  0.3618  1.8328
   73SOL     OW  262   2.361   1.993   2.092 -0.0319 -0.4955  0.0019
   73SOL    HW1  263   2.345   2.011   1.999 -0.8575  1.8012 -0.2667
   73SOL    HW2  264   2.443   2.045   2.098 -0.5969  0.4551 -2.2256
   74SOL     OW  265   2.713   2.692   2.266 -0.1664  0.2036  0.1510
   74SOL    HW1  266   2.714   2.711   2.357  0.2671  0.7474  1.4582
   74SOL    HW2  267   2.810   2.694   2.242 -0.2957  0.6309  1.8161
   75SOL     OW  268   0.027   0.348   1.453 -0.1731 -0.1666  0.4128
   75SOL    HW1  269  -0.051   0.292   1.473 -0.5316  0.6537 -0.3805
   75SOL    HW2  270  -0.027   0.419   1.408  1.4064  0.8418 -0.5787
   76SOL     OW  271   0.497   0.703   2.070 -0.3460 -0.0981 -0.2812
   76SOL    HW1  272   0.511   0.777   2.130  0.9121 -1.8764 -1.7355
   76SOL    HW2  273   0.474   0.634   2.138  0.1894 -0.8536  2.9869
   77SOL     OW  274   0.135   0.304   1.180  0.1820  0.2589  0.0786
   77SOL    HW1  275   0.140   0.346   1.263  1.7348  0.8300 -0.7309
   77SOL    HW2  276   0.184   0.365   1.125  3.5549  0.9901 -2.1582
   78SOL     OW  277   0.927   2.506   2.365 -0.0286  0.1535 -0.9142
   78SOL    HW1  278   0.922   2.425   2.419 -2.7149  1.0024 -0.0776
   78SOL    HW2  279   0.864   2.566   2.405 -0.5586 -3.3302 -3.3369
   79SOL     OW  280   0.964   1.993   0.551 -0.4187 -0.3700 -0.1244
   79SOL    HW1  281   0.927   1.910   0.521  1.3548  0.1154  1.0452
   79SOL    HW2  282   0.920   2.056   0.487 -1.4703  1.3998 -0.6172
   80SOL     OW  283   1.907   0.835   2.212 -0.6964 -0.2454  0.1280
   80SOL    HW1  284   1.926   0.826   2.308 -0.6792  0.3107  0.4542
   80SOL    HW2  285   1.991   0.863   2.167 -1.1471  0.3953 -3.0730
   81SOL     OW  286   0.841   2.791   0.735  0.0336  0.3429 -0.0671
   81SOL    HW1  287   0.923   2.816   0.690 -0.0043  2.4645 -0.2628
   81SOL    HW2  288   0.793   2.767   0.654 -1.8223 -0.8614 -2.3689
   82SOL     OW  289   2.707   0.539   0.621  0.0896 -0.2478 -0.6869
   82SOL    HW1  290   2.618   0.572   0.616 -0.0906 -1.5247  0.3693
   82SOL    HW2  291   2.739   0.545   0.530  1.7806 -1.1038 -3.9858
   83SOL     OW  292   2.508   2.933   1.891  0.7490  0.4652  0.3431
   83SOL    HW1  293   2.438   2.996   1.908 -0.3877 -1.9864  0.8542
   83SOL    HW2  294   2.513   2.892   1.986 -2.1052  2.0585 -0.6161
   84SOL     OW  295   1.542   0.377   1.975 -0.2193  0.1055  0.3419
   84SOL    HW1  296   1.544   0.396   2.071  0.1878 -1.1349  1.0495
   84SOL    HW2  297   1.599   0.295   1.975  1.0530 -2.2689  1.8136
   85SOL     OW  298   1.547   2.025   1.452  0.3553 -0.0201 -0.4389
   85SOL    HW1  299   1.465   2.065   1.484 -2.4059  2.0795 -1.1716
   85SOL    HW2  300   1.607   2.099   1.432 -0.3261 -0.8277 -3.4565
   86SOL     OW  301   1.302   0.372   0.300  0.3694 -0.5903  0.5293
   86SOL    HW1  302   1.270   0.463   0.291 -3.6569 -1.9422 -2.0104
   86SOL    HW2  303   1.251   0.331   0.227 -0.5168 -3.0064 -1.1965
   87SOL     OW  304   2.455   1.228   1.964  0.0845  0.0039 -0.1587
   87SOL    HW1  305   2.440   1.288   2.039  1.5073 -2.3386  0.6121
   87SOL    HW2  306   2.535   1.277   1.927  1.2288 -2.9990  0.4672
   88SOL     OW  307   2.656   0.876   1.690  0.0646  0.1426 -0.0609
   88SOL    HW1  308   2.666   0.871   1.599  1.4434  1.1402  2.0813
   88SOL    HW2  309   2.613   0.792   1.708  0.1928 -0.4112 -1.6638
   89SOL     OW  310   2.579   2.150   2.079 -0.1787 -0.4279  0.5983
   89SOL    HW1  311   2.667   2.146   2.037  1.5006  1.5826 -0.2137
   89SOL    HW2  312   2.603   2.156   2.171  2.7043 -3.3292  0.1327
   90SOL     OW  313   2.730   0.930   0.032 -0.5859  0.2944  0.0464
   90SOL    HW1  314   2.651   0.875   0.057  0.9146  0.6258 -0.9511
   90SOL    HW2  315   2.712   1.011   0.081 -1.5767 -1.2978 -0.9220
   91SOL     OW  316   1.684   0.083   1.568 -0.4131 -0.7641 -0.4179
   91SOL    HW1  317   1.654   0.071   1.651 -0.7940 -1.5855  1.5073
   91SOL    HW2  318   1.611   0.138   1.524  0.7975 -0.9834  2.6312
   92SOL     OW  319   2.914   2.567   1.268 -0.0374  0.1327  0.2511
   92SOL    HW1  320   2.925   2.658   1.294 -0.5500  1.8485  1.0324
   92SOL    HW2  321   2.953   2.571   1.180  3.4998 -1.6886 -0.9039
   93SOL     OW  322   0.265   2.252   0.425 -0.2702  0.3670 -0.4355
   93SOL    HW1  323   0.297   2.304   0.508 -0.0591 -1.8837 -0.0722
   93SOL    HW2  324   0.170   2.242   0.450  0.5496 -0.0517  2.3976
   94SOL     OW  325   0.525   2.060   0.968 -0.0781  0.1272 -0.2996
   94SOL    HW1  326   0.464   2.076   1.047 -0.8778  2.9108  0.9792
   94SOL    HW2  327   0.599   2.116   1.004  1.8653 -1.1937  0.7607
   95SOL     OW  328   1.947   1.156   0.976 -0.2531  0.1157  0.0035
   95SOL    HW1  329   1.963   1.077   0.927  2.9168 -2.1149  3.7912
   95SOL    HW2  330   1.940   1.223   0.912  0.5930 -4.0059  3.3012
   96SOL     OW  331   0.795   0.304   1.801  0.6625 -0.2812  0.1755
   96SOL    HW1  332   0.841   0.234   1.744 -1.0324 -1.3366  0.4224
   96SOL    HW2  333   0.855   0.314   1.882 -1.0505  0.3693  1.6863
   97SOL     OW  334   2.077   2.737   0.628 -0.0385  0.5124 -0.1551
   97SOL    HW1  335   1.996   2.682   0.611 -1.2768 -3.2634  0.9629
   97SOL    HW2  336   2.132   2.658   0.630  0.0873 -2.6518  0.6847
   98SOL     OW  337   2.368   2.963   0.045 -0.0042 -0.2019 -0.1952
   98SOL    HW1  338   2.380   2.904   0.125  0.8030  0.3019  0.9013
   98SOL    HW2  339   2.277   2.988   0.070 -0.6699  1.3249  0.6845
   99SOL     OW  340   2.700   0.024   0.576  0.0569  0.1450  0.3371
   99SOL    HW1  341   2.707   0.057   0.667 -1.7281  1.3214 -0.6067
   99SOL    HW2  342   2.619   0.064   0.538  1.1703  1.0824 -0.2249
  100SOL     OW  343   2.079   2.661   2.441  0.5059  0.0938 -0.0438
  100SOL    HW1  344   2.176   2.674   2.440  1.7493  1.9667  1.2246
  100SOL    HW2  345   2.056   2.752   2.476 -1.8745 -0.8608 -1.0561
  101SOL     OW  346   2.891   0.615   1.456 -0.6119  0.1063 -0.4468
  101SOL    HW1  347   2.806   0.625   1.414  1.9807 -0.9192 -0.2252
  101SOL    HW2  348   2.918   0.713   1.470 -0.0467 -0.1261 -2.9378
  102SOL     OW  349   1.802   1.201   1.206  0.2942 -0.3241  0.4916
  102SOL    HW1  350   1.790   1.104   1.219 -0.8801  1.1592 -0.9212
  102SOL    HW2  351   1.839   1.189   1.116 -1.9732 -0.4332  0.1077
  103SOL     OW  352   1.892   2.555   0.578 -0.1619  0.4927 -0.2515
  103SOL    HW1  353   1.808   2.552   0.528  3.4342  1.1293 -0.6607
  103SOL    HW2  354   1.910   2.465   0.597  0.4509  0.9266  2.9252
  104SOL     OW  355   0.700   2.289   0.677  0.4194 -0.1779 -0.8418
  104SOL    HW1  356   0.788   2.336   0.684 -1.2058 -1.6383  0.9587
  104SOL    HW2  357   0.728   2.198   0.688  0.0187  1.9702 -2.2143
  105SOL     OW  358   0.797   0.411   0.533  0.5074  0.3271 -0.2326
  105SOL    HW1  359   0.862   0.466   0.586 -1.5517 -0.2880  1.7320
  105SOL    HW2  360   0.813   0.438   0.444  1.1316 -1.2174 -2.6226
  106SOL     OW  361   1.639   1.309   1.406 -0.2431  0.4214 -0.0556
  106SOL    HW1  362   1.707   1.376   1.408  0.5439 -0.6581 -1.5646
  106SOL    HW2  363   1.672   1.256   1.335  1.6175  2.8222  1.1869
  107SOL     OW  364   0.795   0.874   0.905 -0.0136 -0.0503  0.4441
  107SOL    HW1  365   0.770   0.796   0.851  1.5289  0.1252  0.3922
  107SOL    HW2  366   0.833   0.829   0.983 -0.3443  3.8442  0.3251
  108SOL     OW  367   2.683   0.534   1.230  0.3149  0.1114 -0.6808
  108SOL    HW1  368   2.650   0.460   1.276 -0.0768  0.8206  0.7666
  108SOL    HW2  369   2.748   0.491   1.178  1.0465 -0.7996 -0.6919
  109SOL     OW  370   2.694   0.854   0.881  0.4426 -0.3325  0.3192
  109SOL    HW1  371   2.700   0.934   0.819  0.5766  0.5072 -0.5377
  109SOL    HW2  372   2.767   0.801   0.856 -0.3054 -0.6016 -1.0902
  110SOL     OW  373   2.971   2.191   2.807 -0.4602 -0.1217  0.0237
  110SOL    HW1  374   2.926   2.111   2.842 -1.7462  0.6112  1.7637
  110SOL    HW2  375   3.049   2.197   2.869  1.3172  1.3403  1.6958
  111SOL     OW  376   1.031   2.299   0.465  0.0869 -0.5559  0.0526
  111SOL    HW1  377   1.125   2.321   0.462 -1.6117  0.8870 -1.8038
  111SOL    HW2  378   1.005   2.323   0.556 -1.4129 -0.5036 -1.1957
  112SOL     OW  379   2.036   0.336   1.920 -0.3526 -0.2097 -0.5999
  112SOL    HW1  380   1.994   0.247   1.911  0.5675 -1.0745  0.3293
  112SOL    HW2  381   2.011   0.375   1.827 -1.2077 -1.5357  0.7945
  113SOL     OW  382   1.874   2.826   2.095 -0.0367 -0.0205 -0.3949
  113SOL    HW1  383   1.789   2.806   2.048  0.5219 -1.8634 -0.7692
  113SOL    HW2  384   1.838   2.862   2.184  0.4408  0.5546  1.4955
  114SOL     OW  385   0.066   1.232   0.337  0.5456 -0.0502  0.0938
  114SOL    HW1  386   0.107   1.321   0.318  2.0915 -0.2899  0.3020
  114SOL    HW2  387   0.045   1.212   0.251  0.4430  1.8981  1.4491
  115SOL     OW  388   1.151   0.854   1.118 -0.0550  0.0936  0.1643
  115SOL    HW1  389   1.181   0.923   1.057  2.0095  1.3482 -0.0195
  115SOL    HW2  390   1.207   0.871   1.192  0.8634 -0.8303 -1.8466
  116SOL     OW  391   1.776   0.922   2.596 -0.1864 -0.4953 -0.8865
  116SOL    HW1  392   1.815   0.967   2.672 -0.0246  1.8049 -1.3500
  116SOL    HW2  393   1.784   1.002   2.538  1.0805  0.7168  0.9186
  117SOL     OW  394   1.782   2.172   2.498 -0.0997 -0.5172  0.4541
  117SOL    HW1  395   1.743   2.128   2.418 -1.2664 -0.9257  2.0901
  117SOL    HW2  396   1.731   2.133   2.569 -2.1323  1.6430 -2.4418
  118SOL     OW  397   0.709   2.687   0.501  0.1985  0.2633  0.5627
  118SOL    HW1  398   0.621   2.728   0.524  2.9622  0.2594 -3.3188
  118SOL    HW2  399   0.680   2.593   0.490  0.1153 -1.6359  0.2888
  119SOL     OW  400   1.637   2.365   1.040  0.5335 -0.0276  0.1009
  119SOL    HW1  401   1.567   2.390   1.102 -0.9595  1.3984  2.1981
  119SOL    HW2  402   1.594   2.300   0.982  2.1164 -0.5124 -1.0899
  120SOL     OW  403   2.202   0.427   0.223 -1.0874 -0.3636 -0.4627
  120SOL    HW1  404   2.239   0.359   0.164  1.5561 -0.8328  1.3591
  120SOL    HW2  405   2.124   0.448   0.172  0.7607 -0.0782 -1.5408
  121SOL     OW  406   0.273   0.619   2.432 -0.0586  0.1822  0.3119
  121SOL    HW1  407   0.274   0.711   2.462 -1.7096 -0.6339  0.7384
  121SOL    HW2  408   0.190   0.622   2.378  0.1253 -1.5372 -0.2017
  122SOL     OW  409   0.473   0.936   1.175 -0.0729  0.1486  0.2694
  122SOL    HW1  410   0.477   1.005   1.242  0.6369  0.5284 -1.6323
  122SOL    HW2  411   0.425   0.870   1.215  1.5912 -1.3334  1.3917
  123SOL     OW  412   1.717   2.495   1.422  0.2721 -0.0964  0.1153
  123SOL    HW1  413   1.781   2.519   1.356  0.4051  1.1744 -0.0821
  123SOL    HW2  414   1.713   2.571   1.482  1.5445  2.2997  0.9125
  124SOL     OW  415   2.836   0.719   1.977  0.1839  0.0094 -0.1755
  124SOL    HW1  416   2.874   0.648   2.032  0.7353  1.8373 -0.1499
  124SOL    HW2  417   2.844   0.686   1.884  2.0744  0.9301 -1.1809
  125SOL     OW  418   1.030   1.474   2.395 -0.9922  0.4478  0.1514
  125SOL    HW1  419   0.937   1.474   2.405 -1.6849 -0.5659 -0.8757
  125SOL    HW2  420   1.040   1.453   2.300 -1.8335 -0.8772  1.8273
  126SOL     OW  421   2.796   1.915   1.124  0.2883  0.1587  0.0293
  126SOL    HW1  422   2.810   1.928   1.027 -1.5212 -0.1758  2.6881
  126SOL    HW2  423   2.720   1.852   1.118  0.0273 -1.0635  0.9306
  127SOL     OW  424   0.686   1.903   2.839 -0.1192 -0.2595 -0.3241
  127SOL    HW1  425   0.682   2.001   2.825 -0.5016  3.2331 -4.8864
  127SOL    HW2  426   0.747   1.873   2.762 -0.0295 -1.1571 -0.8391
  128SOL     OW  427   0.808   1.226   0.195 -0.1645 -0.0240  0.3379
  128SOL    HW1  428   0.872   1.160   0.228  1.4607  0.0469 -1.0704
  128SOL    HW2  429   0.763   1.183   0.122  2.2271  1.0910  1.2950
  129SOL     OW  430   1.317   2.567   2.002  0.2845  0.2630  0.4931
  129SOL    HW1  431   1.315   2.511   1.921  0.9999 -0.8988  0.1173
  129SOL    HW2  432   1.237   2.540   2.054 -1.2142 -1.8072  1.0336
  130SOL     OW  433   0.350   0.824   1.870  0.0581 -0.2298  0.0463
  130SOL    HW1  434   0.394   0.911   1.861  1.9969 -0.9024  1.6491
  130SOL    HW2  435   0.390   0.780   1.948  1.3143 -0.3133  0.5324
  131SOL     OW  436   1.525   0.826   2.663 -0.1602 -0.7678 -0.5471
  131SOL    HW1  437   1.461   0.816   2.589 -1.5225 -0.4234  1.1583
  131SOL    HW2  438   1.598   0.869   2.621 -1.2582 -0.1644  1.4570
  132SOL     OW  439   1.213   1.866   2.098  0.0858  1.0267  0.4795
  132SOL    HW1  440   1.273   1.791   2.091  0.5575 -0.8172 -1.4200
  132SOL    HW2  441   1.137   1.837   2.155 -0.3973  1.9641 -0.4132
  133SOL     OW  442   2.333   1.221   2.333  0.2568  0.0873 -0.3187
  133SOL    HW1  443   2.407   1.155   2.320  0.1091  1.3484  0.1908
  133SOL    HW2  444   2.355   1.296   2.274 -0.5080  1.8975 -2.1241
  134SOL     OW  445   2.597   1.792   2.349 -0.4608  0.0880 -0.1815
  134SOL    HW1  446   2.572   1.700   2.319  0.0914 -0.3014  2.9881
  134SOL    HW2  447   2.666   1.825   2.295  1.3804  0.5171  0.5714
  135SOL     OW  448   1.369   2.186   2.466  0.1632  0.2504  0.5155
  135SOL    HW1  449   1.367   2.163   2.562  2.1147 -0.1002 -0.2145
  135SOL    HW2  450   1.284   2.231   2.451  1.1663 -0.9797  1.9930
  136SOL     OW  451   2.526   2.836   2.138 -0.2512 -0.2290 -0.4568
  136SOL    HW1  452   2.441   2.823   2.192  0.2282 -0.1733  1.6063
  136SOL    HW2  453   2.579   2.770   2.192 -3.0063  0.4038  0.7299
  137SOL     OW  454   0.382   2.950   2.221 -0.4671 -0.8028 -0.1046
  137SOL    HW1  455   0.330   2.978   2.298  1.4045 -2.0625  4.5728
  137SOL    HW2  456   0.341   2.879   2.190 -2.6493 -0.8362  0.4109
  138SOL     OW  457   1.102   2.760   1.765 -0.0347 -0.0564  0.7938
  138SOL    HW1  458   1.148   2.690   1.711  1.9863 -3.5985  1.2607
  138SOL    HW2  459   1.041   2.713   1.825  4.4664  2.4455 -0.0938
  139SOL     OW  460   1.952   1.359   2.188  0.1452 -0.3468 -0.1458
  139SOL    HW1  461   1.992   1.355   2.276  2.1615 -2.1403  1.4361
  139SOL    HW2  462   1.966   1.271   2.153  1.2653 -1.8005  1.3744
  140SOL     OW  463   1.291   1.410   2.956  0.1493  0.4135  0.6966
  140SOL    HW1  464   1.340   1.322   2.969  1.1223 -0.3055 -1.6288
  140SOL    HW2  465   1.282   1.449   3.039 -0.7977 -1.2484 -1.2293
  141SOL     OW  466   1.681   2.238   1.380  0.0360 -0.4651 -0.3074
  141SOL    HW1  467   1.678   2.329   1.416 -0.4346 -1.4054 -2.7132
  141SOL    HW2  468   1.674   2.254   1.285 -0.0053 -0.0576 -0.2416
  142SOL     OW  469   2.019   2.005   0.223 -0.4725 -0.0320  0.3953
  142SOL    HW1  470   2.103   2.034   0.178  2.2370 -1.9588 -1.1001
  142SOL    HW2  471   2.032   1.906   0.214  1.5481 -1.0500 -0.6061
  143SOL     OW  472   2.206   2.255   0.392  0.4212 -0.4225  0.4438
  143SOL    HW1  473   2.177   2.186   0.326  0.8965 -0.8815  0.6740
  143SOL    HW2  474   2.233   2.323   0.329 -1.3134  0.9312 -0.4571
  144SOL     OW  475   0.566   2.081   1.807 -0.1289 -0.4048  0.7248
  144SOL    HW1  476   0.557   2.121   1.720  1.6383  1.4845 -0.8825
  144SOL    HW2  477   0.660   2.064   1.802 -0.9621 -0.6534 -0.5669
  145SOL     OW  478   1.839   1.004   0.409  0.5282  0.3117  0.1567
  145SOL    HW1  479   1.796   0.971   0.327 -2.4964  0.3887  1.8454
  145SOL    HW2  480   1.762   1.047   0.446 -0.8265 -1.1840 -0.0978
  146SOL     OW  481   0.312   2.332   0.980 -0.1155 -0.0523  0.5624
  146SOL    HW1  482   0.343   2.282   1.059  1.4509  1.2798  0.6239
  146SOL    HW2  483   0.390   2.378   0.952 -0.2070 -1.6132  0.0727
  147SOL     OW  484   0.884   1.765   2.695 -0.3490  0.4720 -0.3297
  147SOL    HW1  485   0.951   1.798   2.623  0.8369 -0.0961 -2.4679
  147SOL    HW2  486   0.951   1.717   2.752  1.1332 -0.9631 -0.0490
  148SOL     OW  487   1.406   0.411   2.989  0.0125  0.1816  0.8345
  148SOL    HW1  488   1.434   0.501   2.962 -1.4761 -0.7935 -2.2122
  148SOL    HW2  489   1.330   0.427   3.049  1.9361 -0.5771 -2.3092
  149SOL     OW  490   1.236   1.118   2.606 -0.3165  0.5126  0.2023
  149SOL    HW1  491   1.301   1.079   2.663  0.0953  1.0040  2.5553
  149SOL    HW2  492   1.205   1.203   2.653  1.1277  1.0857  1.1030
  150SOL     OW  493   0.120   0.933   0.499 -0.1734 -1.0692  0.5894
  150SOL    HW1  494   0.046   0.879   0.460 -2.0180 -1.2714 -1.1330
  150SOL    HW2  495   0.194   0.869   0.499 -0.7024  1.1765 -1.8864
  151SOL     OW  496   0.381   2.322   1.764  0.1787 -0.1760  0.1035
  151SOL    HW1  497   0.380   2.267   1.840  1.6403  1.2517  2.8984
  151SOL    HW2  498   0.384   2.415   1.802  0.2467  1.7636  2.8540
  152SOL     OW  499   1.053   1.131   1.262  0.5490 -0.1369  0.6009
  152SOL    HW1  500   0.987   1.173   1.319  0.8414 -1.9411 -0.1855
  152SOL    HW2  501   0.995   1.061   1.233  0.0583 -0.2608  3.6393
  153SOL     OW  502   2.400   1.102   0.943  0.6891  0.2279 -0.4286
  153SOL    HW1  503   2.382   1.178   0.885 -0.5250 -0.2061  0.1195
  153SOL    HW2  504   2.316   1.093   0.997  2.0453 -1.8158 -1.3916
  154SOL     OW  505   1.992   2.400   1.942  0.0619  0.6505  0.4244
  154SOL    HW1  506   2.069   2.436   1.992 -0.9806  1.6336  0.4812
  154SOL    HW2  507   1.926   2.423   2.012 -2.1335 -2.6555 -0.2485
  155SOL     OW  508   0.514   0.914   2.919  0.0691  0.3327  0.3228
  155SOL    HW1  509   0.498   1.013   2.928 -0.9405 -1.3721 -1.7831
  155SOL    HW2  510   0.433   0.876   2.951 -0.8007  0.8115 -0.9253
  156SOL     OW  511   0.428   2.717   0.077  0.0749 -0.1490 -0.2454
  156SOL    HW1  512   0.344   2.767   0.085  1.8167 -0.6145 -3.9669
  156SOL    HW2  513   0.481   2.780   0.125  0.1745  0.8747 -0.1231
  157SOL     OW  514   0.333   1.930   1.703 -0.2483  0.2437  0.1050
  157SOL    HW1  515   0.405   1.966   1.757  2.7392  1.8566 -1.2540
  157SOL    HW2  516   0.271   1.897   1.770 -0.8987 -0.9658 -0.8318
  158SOL     OW  517   2.913   1.998   0.842  0.2264 -0.2676  0.2395
  158SOL    HW1  518   2.973   2.053   0.787 -0.7820  2.3500  0.6289
  158SOL    HW2  519   2.860   2.072   0.875  0.7271  2.4214  0.7638
  159SOL     OW  520   1.653   1.864   0.198 -0.1350 -0.0088 -0.6291
  159SOL    HW1  521   1.568   1.900   0.166 -0.8714  0.7991  1.4933
  159SOL    HW2  522   1.700   1.945   0.222 -2.8975 -2.1340 -2.0518
  160SOL     OW  523   1.783   1.337   2.476  0.1584 -0.2664 -0.4506
  160SOL    HW1  524   1.742   1.352   2.562 -3.9658 -0.7646 -1.7491
  160SOL    HW2  525   1.873   1.362   2.484 -2.2971 -2.1346 -0.3277
  161SOL     OW  526   2.704   0.072   0.865 -0.2926 -0.1417  0.2034
  161SOL    HW1  527   2.762   0.032   0.932 -0.6484 -2.3443 -1.9823
  161SOL    HW2  528   2.623   0.019   0.877  1.2168 -1.0600 -0.7983
  162SOL     OW  529   1.769   1.632   0.466 -0.4264  0.5291 -0.7101
  162SOL    HW1  530   1.695   1.645   0.526 -1.7050 -0.2484  0.7158
  162SOL    HW2  531   1.810   1.717   0.457 -2.1524  1.3831  0.2035
  163SOL     OW  532   2.119   0.693   0.700  0.0016  0.4675 -0.0499
  163SOL    HW1  533   2.200   0.739   0.686 -0.8731 -0.9983 -3.5204
  163SOL    HW2  534   2.062   0.744   0.642  0.7637  3.0957 -0.9960
  164SOL     OW  535   1.847   2.159   1.595 -0.3711  0.2105 -0.6555
  164SOL    HW1  536   1.782   2.205   1.534 -2.1409  2.4211  1.3931
  164SOL    HW2  537   1.901   2.109   1.539 -0.2741 -0.8390 -0.2519
  165SOL     OW  538   0.408   0.213   0.330 -0.0841  0.4855  0.2292
  165SOL    HW1  539   0.496   0.178   0.350  1.0236  0.0892 -1.3863
  165SOL    HW2  540   0.349   0.138   0.317  0.0568 -0.0761 -1.3692
  166SOL     OW  541   0.389   0.429   1.929  0.6366 -0.0658 -0.0915
  166SOL    HW1  542   0.395   0.455   2.022 -3.6385  1.7731  0.0947
  166SOL    HW2  543   0.398   0.334   1.936 -1.9353 -2.4881  0.0411
  167SOL     OW  544   1.777   0.234   2.338  0.6770 -0.0541 -0.0977
  167SOL    HW1  545   1.714   0.308   2.314 -2.5870  1.4323 -0.2217
  167SOL    HW2  546   1.715   0.159   2.335 -0.5155 -0.1588 -2.1560
  168SOL     OW  547   0.948   0.746   2.215  0.7535  0.1199 -0.4567
  168SOL    HW1  548   1.002   0.824   2.208 -0.0632  0.0494 -2.7684
  168SOL    HW2  549   0.911   0.750   2.301  0.4573 -0.0102 -0.4817
  169SOL     OW  550   0.934   1.339   1.026  0.0958  0.1298  0.1442
  169SOL    HW1  551   0.951   1.258   1.072  1.2196 -2.0771 -2.4088
  169SOL    HW2  552   0.870   1.398   1.061 -1.3530 -0.9269 -1.0663
  170SOL     OW  553   1.157   2.670   2.521 -0.4994  0.3577  0.1317
  170SOL    HW1  554   1.115   2.594   2.482 -1.3228 -1.5917  1.0533
  170SOL    HW2  555   1.229   2.678   2.462  1.5826  2.5978 -0.9310
  171SOL     OW  556   2.146   1.577   2.503 -0.2641 -0.3574  0.3066
  171SOL    HW1  557   2.237   1.615   2.490 -0.7354 -1.1299  0.1336
  171SOL    HW2  558   2.156   1.482   2.477  1.2180 -0.0020 -2.7657
  172SOL     OW  559   0.805   1.876   1.056  0.4511  0.3489 -0.4387
  172SOL    HW1  560   0.761   1.856   1.135 -1.2469 -1.9733 -1.5786
  172SOL    HW2  561   0.735   1.849   0.990 -2.6436  1.3929 -2.0314
  173SOL     OW  562   2.120   1.058   2.289  0.0003 -0.5176 -0.8004
  173SOL    HW1  563   2.104   1.041   2.192  0.3728 -1.9763 -0.1250
  173SOL    HW2  564   2.205   1.102   2.287  0.3473 -1.5713  1.5083
  174SOL     OW  565   1.545   1.587   2.792 -0.6740 -0.4087  0.2011
  174SOL    HW1  566   1.460   1.581   2.844 -0.6312 -0.2264 -1.0036
  174SOL    HW2  567   1.560   1.494   2.773 -4.1034  2.5815  0.4610
  175SOL     OW  568   2.863   1.003   1.140  0.0379 -0.4169  0.0276
  175SOL    HW1  569   2.858   0.956   1.057  0.7756 -2.0374 -0.2339
  175SOL    HW2  570   2.767   0.994   1.164 -1.1084  2.2571 -0.4962
  176SOL     OW  571   1.295   1.700   2.535 -0.2513 -0.6542  0.4538
  176SOL    HW1  572   1.310   1.675   2.437 -1.2545  2.6308 -0.7973
  176SOL    HW2  573   1.270   1.615   2.573  2.0161  0.3399  0.8615
  177SOL     OW  574   2.298   2.286   2.448  0.5181 -0.1585 -0.4348
  177SOL    HW1  575   2.327   2.191   2.445  0.0086  1.1559 -1.1734
  177SOL    HW2  576   2.201   2.274   2.440 -0.1093 -1.5099  1.0489
  178SOL     OW  577   0.362   0.387   0.521  0.1937 -0.2835 -0.2615
  178SOL    HW1  578   0.394   0.319   0.463  0.2039 -0.5825 -0.1281
  178SOL    HW2  579   0.437   0.441   0.532 -2.7443 -1.1022 -1.4797
  179SOL     OW  580   0.343   0.351   2.804 -0.0676  0.0336  0.2082
  179SOL    HW1  581   0.370   0.402   2.885 -1.5028  1.9750 -0.5649
  179SOL    HW2  582   0.386   0.396   2.730 -1.7605 -0.2758 -0.8568
  180SOL     OW  583   1.231   2.520   0.671 -0.0745  0.1110 -0.1471
  180SOL    HW1  584   1.224   2.619   0.661  1.2380 -1.5475  3.3320
  180SOL    HW2  585   1.314   2.504   0.725  0.4841 -0.6080 -1.2554
  181SOL     OW  586   1.022   0.246   2.730 -0.2134  0.3151 -0.6650
  181SOL    HW1  587   0.977   0.250   2.642 -0.1978  0.4642  0.1056
  181SOL    HW2  588   1.116   0.254   2.704  0.6269 -1.4623  0.2410
  182SOL     OW  589   2.444   2.379   1.961 -0.7763 -0.0632 -0.2560
  182SOL    HW1  590   2.445   2.319   1.884 -0.4379  0.6691 -1.9255
  182SOL    HW2  591   2.491   2.319   2.026 -1.6375  1.8900  0.9103
  183SOL     OW  592   2.463   0.857   1.019  0.4680  0.1724 -0.0108
  183SOL    HW1  593   2.553   0.849   0.970 -0.7078 -1.3189 -2.7464
  183SOL    HW2  594   2.427   0.945   0.981 -0.5830 -0.6550 -1.1659
  184SOL     OW  595   1.895   0.732   1.128  0.4753  0.2384 -0.1440
  184SOL    HW1  596   1.900   0.684   1.044  1.4762 -0.6772  1.6332
  184SOL    HW2  597   1.992   0.742   1.145  2.7952  1.4241 -0.0514
  185SOL     OW  598   2.037   2.956   0.774 -0.5173  0.0333 -0.5038
  185SOL    HW1  599   2.107   2.930   0.840 -0.3695  1.0216 -1.8689
  185SOL    HW2  600   2.041   2.873   0.715  0.7421 -1.1050  0.3750
  186SOL     OW  601   0.599   2.151   2.362  0.3299 -0.6371 -0.1744
  186SOL    HW1  602   0.514   2.175   2.400  1.6619  2.2779  1.1456
  186SOL    HW2  603   0.586   2.153   2.267 -0.4438  2.0326 -3.2983
  187SOL     OW  604   1.064   1.959   1.439 -0.2417  0.4347  0.1910
  187SOL    HW1  605   1.036   2.050   1.430 -1.2578  1.0261  1.2679
  187SOL    HW2  606   0.977   1.915   1.448  1.8843  1.0996  1.1344
  188SOL     OW  607   1.752   2.997   1.161  0.4584 -0.8886  0.1942
  188SOL    HW1  608   1.772   2.909   1.111 -1.3913 -1.3363  2.3805
  188SOL    HW2  609   1.716   3.053   1.080 -0.4598  1.6380  0.5451
  189SOL     OW  610   1.032   1.865   0.163 -0.3957  0.5870  0.0538
  189SOL    HW1  611   1.037   1.943   0.224  0.2570 -1.6664 -2.1133
  189SOL    HW2  612   0.980   1.896   0.090 -0.5583 -1.5748  0.9055
  190SOL     OW  613   0.105   2.752   1.854  0.5647 -0.3504 -0.3112
  190SOL    HW1  614   0.087   2.781   1.766  0.8603 -1.8499  0.3778
  190SOL    HW2  615   0.069   2.660   1.851 -2.6339  2.9985 -2.6865
  191SOL     OW  616   1.282   2.123   0.700  0.3488 -0.6487  0.2695
  191SOL    HW1  617   1.220   2.064   0.752 -1.4775 -0.8386 -0.1931
  191SOL    HW2  618   1.213   2.171   0.647 -1.2576 -0.0600  0.6336
  192SOL     OW  619   2.248   0.277   1.516 -0.4313  0.4600  0.7045
  192SOL    HW1  620   2.306   0.231   1.452 -0.5566  0.9372  1.0914
  192SOL    HW2  621   2.161   0.233   1.512 -0.6119  0.0151  1.3221
  193SOL     OW  622   0.172   1.819   0.132  0.1754  0.1379 -0.4766
  193SOL    HW1  623   0.209   1.727   0.154 -0.3686 -1.2350 -1.1416
  193SOL    HW2  624   0.195   1.825   0.040 -0.7301  2.3250 -2.1854
  194SOL     OW  625   0.993   0.520   1.260 -0.0294 -0.9941  0.3257
  194SOL    HW1  626   1.078   0.482   1.248  0.1135 -1.0497  2.0984
  194SOL    HW2  627   0.934   0.455   1.216 -0.2208  0.4910 -0.3993
  195SOL     OW  628   1.234   1.586   0.619  0.0213  0.2858 -0.1287
  195SOL    HW1  629   1.279   1.607   0.705  0.1423 -2.9891 -1.1106
  195SOL    HW2  630   1.150   1.630   0.637 -0.3517 -1.6402  1.3025
  196SOL     OW  631   0.096   0.643   2.220 -0.4307 -0.6645  0.0415
  196SOL    HW1  632   0.133   0.635   2.130  0.3942  1.0943 -0.6780
  196SOL    HW2  633   0.066   0.551   2.226 -1.2324 -0.2915  0.1919
  197SOL     OW  634   2.549   1.787   1.133 -0.1172 -0.2276  0.1152
  197SOL    HW1  635   2.493   1.862   1.095  3.6569  1.0991  1.6354
  197SOL    HW2  636   2.517   1.780   1.228 -2.0041 -0.8176  1.0987
  198SOL     OW  637   1.957   0.468   1.687 -0.5701 -0.4746 -0.2803
  198SOL    HW1  638   2.037   0.528   1.696  1.4484 -0.6124 -2.3461
  198SOL    HW2  639   1.952   0.478   1.592 -0.8034  0.4301  1.0201
  199SOL     OW  640   1.167   0.209   0.677 -0.6897  0.2755  0.4637
  199SOL    HW1  641   1.075   0.170   0.694  0.1540  1.1088 -3.2937
  199SOL    HW2  642   1.150   0.301   0.707 -1.1757 -0.3789 -0.5105
  200SOL     OW  643   1.730   0.639   2.529 -0.7101  0.4412 -0.6209
  200SOL    HW1  644   1.827   0.659   2.524  1.3931 -2.7851  0.2935
  200SOL    HW2  645   1.697   0.715   2.570 -1.4985  0.3870 -0.4940
  201SOL     OW  646   0.169   2.842   0.027 -0.1461  0.1128  0.3404
  201SOL    HW1  647   0.142   2.782  -0.045 -2.7300 -0.0446  0.7082
  201SOL    HW2  648   0.084   2.892   0.033  0.0873  2.3332 -1.1597
  202SOL     OW  649   0.873   2.011   1.815  0.4085 -0.2608  0.6700
  202SOL    HW1  650   0.946   1.940   1.814  1.7654 -1.2895  0.4436
  202SOL    HW2  651   0.934   2.088   1.805  2.5527  0.0458 -2.6549
  203SOL     OW  652   1.318   1.280   0.849  0.6766  0.5475  0.1607
  203SOL    HW1  653   1.304   1.316   0.759 -1.0522  1.0490  2.6067
  203SOL    HW2  654   1.256   1.346   0.895  1.2310 -0.0187 -0.6290
  204SOL     OW  655   0.418   1.110   2.163 -0.4591 -0.5289 -0.1385
  204SOL    HW1  656   0.439   1.092   2.071 -0.8324  1.1905  1.6161
  204SOL    HW2  657   0.332   1.132   2.148  0.3824  2.6374 -2.6121
  205SOL     OW  658   2.629   2.081   2.797 -0.3371  0.1835  0.2653
  205SOL    HW1  659   2.640   2.017   2.723  1.6739  0.4698 -0.6208
  205SOL    HW2  660   2.697   2.046   2.864 -1.7700 -3.9351 -1.4383
  206SOL     OW  661   0.227   2.726   2.118 -1.0789 -0.7600 -0.2717
  206SOL    HW1  662   0.186   2.750   2.036 -0.9691  1.4212 -1.3957
  206SOL    HW2  663   0.254   2.634   2.101  1.7314  1.3205  0.7875
  207SOL     OW  664   1.641   2.041   2.707 -0.2756  0.3048  0.4049
  207SOL    HW1  665   1.616   1.954   2.687 -1.2995  0.3042 -1.7890
  207SOL    HW2  666   1.555   2.076   2.733 -0.8691 -0.4203 -0.1750
  208SOL     OW  667   0.762   1.620   2.159  0.1168 -0.3809  0.0209
  208SOL    HW1  668   0.716   1.551   2.101 -1.9072  0.3197  0.5723
  208SOL    HW2  669   0.725   1.699   2.115 -0.4410  0.1015  1.1173
  209SOL     OW  670   2.292   2.707   2.848  0.2888  1.0964 -0.3564
  209SOL    HW1  671   2.327   2.760   2.777 -0.5404 -2.5150  0.1363
  209SOL    HW2  672   2.367   2.718   2.905 -0.4910  1.5442 -0.6356
  210SOL     OW  673   1.528   2.521   2.172  0.2043 -0.1223 -0.0787
  210SOL    HW1  674   1.593   2.575   2.133 -3.3045 -0.9775 -0.3327
  210SOL    HW2  675   1.449   2.543   2.114 -0.9737  3.0152  2.1624
  211SOL     OW  676   1.126   0.395   0.928 -0.1098 -0.4449 -0.0226
  211SOL    HW1  677   1.198   0.337   0.948 -3.0886 -0.9284 -2.6108
  211SOL    HW2  678   1.062   0.342   0.979  0.6956  0.2240 -2.2951
  212SOL     OW  679   1.338   1.771   1.702 -0.2295 -0.0882 -0.2438
  212SOL    HW1  680   1.344   1.870   1.715  2.5888 -0.0369 -0.2799
  212SOL    HW2  681   1.383   1.739   1.782  0.1293  0.1812 -0.6509
  213SOL     OW  682   0.798   1.038   2.371  0.2708  0.1160 -0.5633
  213SOL    HW1  683   0.894   1.031   2.355 -0.2139  0.4197  2.1574
  213SOL    HW2  684   0.803   1.010   2.465  1.3203 -2.7730 -1.5033
  214SOL     OW  685   2.098   1.832   1.127 -0.0805 -0.5507 -0.4203
  214SOL    HW1  686   2.126   1.926   1.126  0.6895  0.0627  0.7886
  214SOL    HW2  687   2.003   1.849   1.159 -1.1404  0.4533 -1.2319
  215SOL     OW  688   2.751   1.454   2.519 -0.4014  0.7111  0.4295
  215SOL    HW1  689   2.757   1.390   2.591  2.6824  0.0193  1.0646
  215SOL    HW2  690   2.732   1.531   2.572 -1.4180 -3.0081  2.9310
  216SOL     OW  691   0.477   1.650   1.906 -0.8383 -0.2653 -0.5059
  216SOL    HW1  692   0.529   1.575   1.881  0.2606  0.9861  0.3029
  216SOL    HW2  693   0.535   1.722   1.877 -0.5633  2.0056 -0.4345
  217SOL     OW  694   2.604   2.132   1.456 -0.2465  0.3703  0.2569
  217SOL    HW1  695   2.660   2.093   1.524 -0.9935  0.3562 -1.3989
  217SOL    HW2  696   2.663   2.202   1.425  0.8278  0.2946 -0.0284
  218SOL     OW  697   1.378   1.005   2.799 -0.3078 -0.3039 -0.0341
  218SOL    HW1  698   1.445   0.938   2.773 -1.0678 -0.4912  1.0128
  218SOL    HW2  699   1.303   0.955   2.831 -0.4331  0.3658  0.1108
  219SOL     OW  700   2.439   0.613   0.309 -0.0043 -0.2224  0.0831
  219SOL    HW1  701   2.369   0.558   0.272 -1.8016 -0.3001 -0.5964
  219SOL    HW2  702   2.405   0.613   0.403  3.2532 -1.7494  0.9204
  220SOL     OW  703   2.342   1.161   2.599  0.3399 -0.5301  0.3578
  220SOL    HW1  704   2.363   1.068   2.588  1.6713  1.7713  1.6753
  220SOL    HW2  705   2.358   1.193   2.506 -0.4330  1.1484  1.1227
  221SOL     OW  706   0.205   0.252   0.005  0.3170  0.1576  0.2268
  221SOL    HW1  707   0.166   0.162   0.010  0.8960 -3.1259  2.6877
  221SOL    HW2  708   0.261   0.241  -0.073  2.6195 -0.4753  1.1750
  222SOL     OW  709   1.433   2.710   2.373 -0.4870  0.6019  0.0251
  222SOL    HW1  710   1.490   2.698   2.454  0.3385  3.5665 -2.6847
  222SOL    HW2  711   1.448   2.625   2.332 -0.8503  0.3302  0.8323
  223SOL     OW  712   1.455   2.494   0.820  0.2249  0.1705  0.2591
  223SOL    HW1  713   1.442   2.431   0.899  0.4511 -0.7091  0.6884
  223SOL    HW2  714   1.548   2.526   0.839  4.1208  0.6340 -1.9063
  224SOL     OW  715   2.073   1.378   2.838 -0.2860 -0.9578  0.2232
  224SOL    HW1  716   2.062   1.451   2.780 -1.3805 -1.3501  1.2947
  224SOL    HW2  717   1.993   1.384   2.889 -0.8570 -1.9593  0.5890
  225SOL     OW  718   2.239   2.491   2.087  0.4857 -0.5677  0.2561
  225SOL    HW1  719   2.303   2.452   2.029 -0.1695  2.4957  1.0210
  225SOL    HW2  720   2.210   2.567   2.030 -1.4321 -2.1965 -1.9237
  226SOL     OW  721   1.459   1.111   0.469 -0.2073 -0.2053  0.4244
  226SOL    HW1  722   1.531   1.100   0.532  1.7187 -0.3098 -0.7903
  226SOL    HW2  723   1.438   1.206   0.477  0.2409  2.1269 -0.0319
  227SOL     OW  724   2.696   1.489   0.743 -0.0751  0.9226  0.2866
  227SOL    HW1  725   2.735   1.549   0.804 -0.8137 -2.1528 -0.9695
  227SOL    HW2  726   2.774   1.460   0.692 -1.8167 -0.4037 -0.3316
  228SOL     OW  727   2.789   2.802   0.733 -0.3027  0.0345 -0.1706
  228SOL    HW1  728   2.759   2.759   0.653 -1.5458  1.9653 -0.7955
  228SOL    HW2  729   2.707   2.826   0.778  0.4289 -0.0087  2.4336
  229SOL     OW  730   2.384   0.500   2.908  0.4406  0.6127 -0.1083
  229SOL    HW1  731   2.315   0.555   2.871 -0.2353 -1.1962  2.1447
  229SOL    HW2  732   2.356   0.413   2.860 -0.4933 -1.1338 -0.8305
  230SOL     OW  733   1.348   2.033   1.739 -0.0459 -0.2142  0.3136
  230SOL    HW1  734   1.323   2.087   1.659 -0.7703  0.5713 -5.2452
  230SOL    HW2  735   1.437   2.073   1.754  1.7661 -3.8511 -0.1419
  231SOL     OW  736   1.957   2.278   0.525  0.3310 -0.9255 -0.9525
  231SOL    HW1  737   2.033   2.222   0.510  1.6321  1.2820 -0.4580
  231SOL    HW2  738   1.930   2.288   0.433 -0.8437  2.6403  0.0515
  232SOL     OW  739   2.666   2.579   0.934 -0.7614 -0.2110  0.0439
  232SOL    HW1  740   2.667   2.492   0.977 -0.5466  0.8537  0.0820
  232SOL    HW2  741   2.680   2.549   0.840  2.0437 -0.5869  3.4001
  233SOL     OW  742   1.460   2.863   0.812 -0.0432  0.1346  0.1465
  233SOL    HW1  743   1.373   2.822   0.830 -0.0405 -0.4871 -1.3494
  233SOL    HW2  744   1.448   2.957   0.798  0.1237  0.3022 -0.7869
  234SOL     OW  745   1.746   2.099   0.287 -0.5732 -0.0564  0.0506
  234SOL    HW1  746   1.827   2.052   0.267 -0.6066 -1.4297 -0.0216
  234SOL    HW2  747   1.777   2.189   0.279  1.6541  0.7457 -1.8869
  235SOL     OW  748   2.356   1.234   0.584  0.2898 -0.7754 -0.1615
  235SOL    HW1  749   2.401   1.321   0.566  0.0414  1.7085  2.6565
  235SOL    HW2  750   2.282   1.262   0.650 -0.7340  0.4370 -1.3709
  236SOL     OW  751   2.931   0.097   2.288 -0.1755 -0.6642 -0.0358
  236SOL    HW1  752   2.955   0.011   2.256  2.1738 -0.4157  2.2912
  236SOL    HW2  753   2.841   0.110   2.254 -1.0251  2.9446 -0.7613
  237SOL     OW  754   0.508   0.076   2.737  0.2217  0.6964 -0.4513
  237SOL    HW1  755   0.580   0.111   2.672  3.1608  0.4041 -0.5552
  237SOL    HW2  756   0.560   0.058   2.815 -1.0534  1.6259  2.2477
  238SOL     OW  757   2.147   1.254   0.730 -0.1913 -0.6245 -0.0299
  238SOL    HW1  758   2.100   1.196   0.664  0.8811  1.1865 -0.1156
  238SOL    HW2  759   2.077   1.299   0.777  0.7419 -0.7288  2.6353
  239SOL     OW  760   0.128   2.289   1.676  0.0550 -1.0311 -0.2520
  239SOL    HW1  761   0.224   2.284   1.693 -1.0871  2.6468  0.5278
  239SOL    HW2  762   0.119   2.278   1.580 -0.0970  0.2501  0.5855
  240SOL     OW  763   1.733   1.174   0.150 -0.0339  0.3493 -0.4300
  240SOL    HW1  764   1.695   1.239   0.084  0.5873 -1.3082  0.2893
  240SOL    HW2  765   1.651   1.127   0.179 -1.6195  0.1397 -0.3221
  241SOL     OW  766   0.457   1.190   2.925  0.3016  0.3347  0.1449
  241SOL    HW1  767   0.405   1.269   2.892 -0.3418  1.5849 -1.2405
  241SOL    HW2  768   0.435   1.181   3.021 -1.0273 -2.1532 -1.4738
  242SOL     OW  769   0.732   2.634   2.468  0.0977 -0.0787  0.5095
  242SOL    HW1  770   0.752   2.718   2.516 -1.1803  0.4741  3.1985
  242SOL    HW2  771   0.633   2.637   2.459 -0.1398  0.0534  0.2415
  243SOL     OW  772   1.772   2.975   0.190 -0.6869  0.0131  0.4861
  243SOL    HW1  773   1.818   2.889   0.215 -0.7669  1.3021  0.4324
  243SOL    HW2  774   1.716   3.007   0.269 -1.4307  0.6480 -2.0931
  244SOL     OW  775   0.076   2.576   1.042 -0.1389 -0.7826  0.1363
  244SOL    HW1  776   0.025   2.654   1.001 -1.5426  0.8573  1.2639
  244SOL    HW2  777   0.164   2.606   1.041 -0.8710  0.7498 -1.6911
  245SOL     OW  778   1.002   2.951   0.584  0.0514 -0.0112 -0.2263
  245SOL    HW1  779   1.039   2.952   0.494 -0.4926 -1.8114  2.3999
  245SOL    HW2  780   0.950   3.038   0.584  1.0734 -0.4093 -2.3513
  246SOL     OW  781   2.762   2.212   0.911 -0.3003  0.1782 -0.3845
  246SOL    HW1  782   2.741   2.282   0.840 -0.8778  1.5308 -1.7822
  246SOL    HW2  783   2.735   2.244   0.998  1.1257 -0.5228 -3.3647
  247SOL     OW  784   0.445   1.327   1.831  0.7656 -0.1543 -0.1234
  247SOL    HW1  785   0.433   1.358   1.740 -0.2836  1.4090 -2.2458
  247SOL    HW2  786   0.349   1.312   1.853 -1.2176 -1.6700  3.5821
  248SOL     OW  787   2.903   2.128   1.244 -0.5924 -0.1209  0.0664
  248SOL    HW1  788   2.956   2.159   1.168 -1.1003 -1.7141 -1.0174
  248SOL    HW2  789   2.845   2.056   1.204 -0.5734 -1.2400 -0.5104
  249SOL     OW  790   1.459   1.061   0.219 -0.5305  0.1645 -0.1977
  249SOL    HW1  791   1.495   0.973   0.226  0.5763  2.1107  1.8584
  249SOL    HW2  792   1.449   1.073   0.319  2.9684  0.6635 -0.6358
  250SOL     OW  793   0.478   1.001   2.542  0.2132  0.2786  0.0410
  250SOL    HW1  794   0.375   1.013   2.529 -1.7870 -1.1011  0.5299
  250SOL    HW2  795   0.494   0.906   2.562 -1.9202 -1.9140 -0.3554
  251SOL     OW  796   2.903   0.337   1.814 -0.1164 -0.6944  0.5366
  251SOL    HW1  797   2.833   0.271   1.805  0.8937 -0.4573 -1.1278
  251SOL    HW2  798   2.975   0.279   1.846  0.8481 -0.1082 -0.1841
  252SOL     OW  799   0.741   1.490   1.179 -0.1847  0.3673 -0.1409
  252SOL    HW1  800   0.688   1.411   1.204  0.4872 -0.3769  1.9441
  252SOL    HW2  801   0.662   1.543   1.192  0.4606  1.1355 -0.9930
  253SOL     OW  802   2.187   1.639   2.145  0.0605 -0.4113 -0.2126
  253SOL    HW1  803   2.204   1.681   2.063  0.5692 -2.1472 -1.6826
  253SOL    HW2  804   2.163   1.712   2.200 -1.4953 -0.3049 -2.0634
  254SOL     OW  805   2.168   0.109   1.057  0.5450  0.0003 -0.1825
  254SOL    HW1  806   2.080   0.095   1.094 -0.6749  2.8652  0.4521
  254SOL    HW2  807   2.183   0.021   1.038 -0.8214 -1.1808  0.3385
  255SOL     OW  808   1.668   0.148   1.985 -0.3134 -0.7928 -0.2897
  255SOL    HW1  809   1.758   0.130   1.970 -2.0023 -0.4020 -0.2848
  255SOL    HW2  810   1.625   0.111   1.905  0.1818 -0.1760  2.1955
  256SOL     OW  811   1.406   1.255   2.389  0.2970 -0.5228 -0.3757
  256SOL    HW1  812   1.354   1.201   2.328  3.0455  1.6306 -1.4010
  256SOL    HW2  813   1.359   1.243   2.476  0.3726 -0.0517 -0.0384
  257SOL     OW  814   2.699   1.060   0.732 -0.1734  0.1754 -0.3159
  257SOL    HW1  815   2.654   1.138   0.769  0.4342 -0.2915 -0.7914
  257SOL    HW2  816   2.745   1.095   0.652 -1.7561  0.8600 -0.3459
  258SOL     OW  817   2.248   0.931   0.634 -0.2640  0.3081 -0.4432
  258SOL    HW1  818   2.271   0.895   0.547 -0.5093  0.6668  4.7667
  258SOL    HW2  819   2.299   1.009   0.648 -1.9361 -2.6735 -0.0588
  259SOL     OW  820   1.591   0.325   0.165 -0.4555 -0.1684  0.3885
  259SOL    HW1  821   1.539   0.338   0.246 -2.4251 -1.9390 -0.0590
  259SOL    HW2  822   1.540   0.370   0.096 -1.0955 -2.7854 -1.2510
  260SOL     OW  823   2.098   0.493   2.356  0.0474 -0.3035  0.3823
  260SOL    HW1  824   2.054   0.422   2.409  1.8110  0.1897 -1.1603
  260SOL    HW2  825   2.162   0.440   2.302  0.9168  0.2266  1.3688
  261SOL     OW  826   2.205   2.960   2.736  0.2539 -0.3344 -0.0258
  261SOL    HW1  827   2.294   2.939   2.718 -1.0232  2.0676  0.1348
  261SOL    HW2  828   2.201   2.982   2.836  0.0829  1.0116  1.3806
  262SOL     OW  829   0.755   0.685   0.355  0.2475 -0.8379 -0.0310
  262SOL    HW1  830   0.807   0.612   0.302 -0.0449  0.0667 -1.1317
  262SOL    HW2  831   0.829   0.744   0.341 -1.0885 -2.2143  0.2698
  263SOL     OW  832   0.570   1.032   0.916  0.4520  0.0643  0.2999
  263SOL    HW1  833   0.649   0.979   0.898  0.1975 -1.0351  3.3304
  263SOL    HW2  834   0.540   0.995   0.995 -0.8808 -0.2399  0.7364
  264SOL     OW  835   2.852   0.928   2.749  0.0869  0.3412 -0.1389
  264SOL    HW1  836   2.821   0.930   2.846 -2.3480 -1.7712 -0.0777
  264SOL    HW2  837   2.869   0.830   2.746 -2.1409  1.1381 -3.6572
  265SOL     OW  838   0.875   0.890   1.460 -0.2930  0.5099  0.4742
  265SOL    HW1  839   0.959   0.902   1.510 -2.2145 -0.0751 -1.6120
  265SOL    HW2  840   0.876   0.798   1.450  0.3343  0.1927 -2.3844
  266SOL     OW  841   1.826   2.909   2.816 -0.3742  0.2837  0.0452
  266SOL    HW1  842   1.802   3.001   2.808 -0.0124  2.6379  0.5120
  266SOL    HW2  843   1.759   2.877   2.881 -0.2388  0.4917 -0.8378
  267SOL     OW  844   2.566   0.363   2.624 -0.2061 -0.2295  0.1228
  267SOL    HW1  845   2.529   0.289   2.673  2.6965  0.2721 -1.3192
  267SOL    HW2  846   2.659   0.353   2.619 -0.9872  0.6015 -0.2341
  268SOL     OW  847   1.183   1.528   1.667  0.1290 -0.5250  0.5386
  268SOL    HW1  848   1.215   1.622   1.667  0.5370  0.8136 -3.0534
  268SOL    HW2  849   1.270   1.483   1.646  1.1806  1.9682  3.2909
  269SOL     OW  850   0.594   1.434   0.157 -0.0061 -0.1675  0.4232
  269SOL    HW1  851   0.669   1.489   0.180 -0.6886  0.3434 -1.7561
  269SOL    HW2  852   0.589   1.441   0.061  2.9743  2.4958 -2.3271
  270SOL     OW  853   2.188   2.487   0.639 -0.1742 -0.1282 -0.1862
  270SOL    HW1  854   2.172   2.401   0.595 -0.6228  0.1971  0.9280
  270SOL    HW2  855   2.228   2.467   0.724 -1.4050  2.6715 -0.8177
  271SOL     OW  856   1.462   1.673   1.994  0.3467  0.0806  0.5869
  271SOL    HW1  857   1.377   1.625   1.980  0.6629  0.4304 -3.7530
  271SOL    HW2  858   1.512   1.605   2.037 -0.5571  3.0988  0.2398
  272SOL     OW  859   2.270   2.298   2.838  0.6033  0.4973 -0.1233
  272SOL    HW1  860   2.218   2.218   2.827  1.5758 -0.7064 -0.3733
  272SOL    HW2  861   2.221   2.365   2.783  1.3803  0.7432 -3.0539
  273SOL     OW  862   2.488   2.826   1.617 -0.2327  0.7128  0.2462
  273SOL    HW1  863   2.478   2.873   1.697 -1.5091  1.0044 -2.3516
  273SOL    HW2  864   2.429   2.871   1.559  0.9079  0.6500 -0.9526
  274SOL     OW  865   1.983   2.064   1.360  0.1995  0.3442 -0.3300
  274SOL    HW1  866   1.916   2.018   1.301  1.1861 -1.3483 -0.7346
  274SOL    HW2  867   2.022   2.119   1.293 -2.1267  1.7262  1.3015
  275SOL     OW  868   0.068   2.763   0.421  0.1312 -0.5298 -0.9070
  275SOL    HW1  869  -0.015   2.820   0.430 -0.6973  1.1083 -0.3788
  275SOL    HW2  870   0.059   2.706   0.342 -3.0561 -2.0703  0.9278
  276SOL     OW  871   0.665   1.127   1.479 -0.1695  0.0064  0.4639
  276SOL    HW1  872   0.710   1.043   1.481  0.4507 -2.5491 -1.2244
  276SOL    HW2  873   0.649   1.141   1.570 -0.0440  2.6510 -1.2181
  277SOL     OW  874   2.267   2.173   0.742  0.6846 -0.1147  0.0360
  277SOL    HW1  875   2.274   2.077   0.724 -0.4093  2.1107  0.0229
  277SOL    HW2  876   2.336   2.210   0.683 -0.7104  1.6027 -0.4128
  278SOL     OW  877   0.737   2.883   2.583  0.8482 -0.2250  0.1991
  278SOL    HW1  878   0.827   2.883   2.619  1.6063  1.8230  1.7581
  278SOL    HW2  879   0.718   2.978   2.611  0.1406 -0.2630 -4.8223
  279SOL     OW  880   1.460   2.701   0.556 -0.1017 -0.4019 -0.1326
  279SOL    HW1  881   1.475   2.724   0.651  1.5170  0.9429 -0.0029
  279SOL    HW2  882   1.408   2.774   0.531  1.3132 -0.8044  4.5385
  280SOL     OW  883   1.811   1.686   2.536 -0.2490 -0.5256 -0.1499
  280SOL    HW1  884   1.763   1.727   2.612 -1.8749  0.0958  3.2646
  280SOL    HW2  885   1.883   1.638   2.585 -0.4638  0.4988 -2.7824
  281SOL     OW  886   0.526   2.439   0.863 -0.0164  0.2853 -0.1393
  281SOL    HW1  887   0.563   2.491   0.937 -0.8375  0.7213  1.3314
  281SOL    HW2  888   0.614   2.428   0.811 -0.3495  2.4758 -1.0433
  282SOL     OW  889   0.210   2.459   2.189 -0.3525  0.1480 -0.3829
  282SOL    HW1  890   0.133   2.409   2.156 -0.0804  1.5320 -1.3349
  282SOL    HW2  891   0.221   2.402   2.269  3.0739 -2.9257  0.4695
  283SOL     OW  892   0.048   1.915   2.092 -0.2075  0.6245  0.5481
  283SOL    HW1  893   0.082   1.875   2.010 -0.6073  0.0598 -0.2930
  283SOL    HW2  894   0.085   1.857   2.160  1.6675  1.8594  0.6832
  284SOL     OW  895   0.494   1.566   0.542 -0.0771 -0.2885  0.3963
  284SOL    HW1  896   0.424   1.494   0.560 -0.3661 -0.6717 -3.3957
  284SOL    HW2  897   0.581   1.516   0.558  0.8146  0.4224 -0.2045
  285SOL     OW  898   1.753   0.954   1.194  0.2829 -0.3756  0.4795
  285SOL    HW1  899   1.796   0.867   1.187  2.8837 -3.0940  0.2039
  285SOL    HW2  900   1.660   0.939   1.181  0.7960 -1.5536  0.2037
  286SOL     OW  901   2.925   1.458   0.112 -0.0385  0.3235 -0.0359
  286SOL    HW1  902   2.850   1.503   0.168 -1.9330  1.6848  0.4859
  286SOL    HW2  903   3.000   1.465   0.170  0.6359  1.2837 -0.0666
  287SOL     OW  904   1.943   1.462   1.090 -0.7174 -0.4269  0.0202
  287SOL    HW1  905   1.891   1.392   1.142 -1.2364  2.1400 -1.3583
  287SOL    HW2  906   2.027   1.464   1.141 -1.2241 -0.7664 -1.2087
  288SOL     OW  907   1.812   2.216   0.773 -0.6355  0.3924 -0.2457
  288SOL    HW1  908   1.853   2.230   0.684  2.6819  1.9681  0.1384
  288SOL    HW2  909   1.765   2.144   0.748  2.0175  0.4849 -3.1455
  289SOL     OW  910   2.263   2.896   1.468  0.2313  0.1278 -0.0790
  289SOL    HW1  911   2.175   2.884   1.491 -0.7724  0.2312 -2.4968
  289SOL    HW2  912   2.269   2.849   1.381  0.0880  0.8211 -2.5229
  290SOL     OW  913   0.887   2.035   0.008 -0.2118 -0.4621  0.2679
  290SOL    HW1  914   0.858   2.021  -0.086 -1.1514  1.2458 -0.0065
  290SOL    HW2  915   0.800   2.025   0.060 -0.5082  1.0581  2.1158
  291SOL     OW  916   1.224   1.773   2.989 -0.0650 -0.1443 -0.1245
  291SOL    HW1  917   1.159   1.821   3.049  0.0665  0.6955 -1.1641
  291SOL    HW2  918   1.292   1.737   3.051  1.6704  0.1300 -1.5356
  292SOL     OW  919   0.094   1.874   2.581 -0.4447 -0.4529 -0.1676
  292SOL    HW1  920   0.176   1.862   2.524  2.6744  0.5174  1.6203
  292SOL    HW2  921   0.105   1.805   2.643 -1.4872 -1.7635  3.3870
  293SOL     OW  922   0.260   1.304   0.091 -0.2826  0.5015  0.3388
  293SOL    HW1  923   0.290   1.363   0.015  0.5243  1.0063  0.2690
  293SOL    HW2  924   0.178   1.254   0.069 -0.1797 -1.1725  2.0922
  294SOL     OW  925   2.070   0.223   2.528 -0.3958 -0.1798 -0.1566
  294SOL    HW1  926   2.027   0.166   2.458 -0.4248 -0.0531  0.1528
  294SOL    HW2  927   2.169   0.217   2.507 -0.3669  0.5936  3.2145
  295SOL     OW  928   1.479   0.511   0.913 -0.6362  0.1052  0.0975
  295SOL    HW1  929   1.451   0.426   0.949 -0.8087  1.7595 -1.5494
  295SOL    HW2  930   1.478   0.556   1.003 -2.2386 -0.0319  1.8287
  296SOL     OW  931   2.037   2.587   0.978 -0.5329 -0.0443 -0.1410
  296SOL    HW1  932   2.104   2.546   0.925  0.2340 -2.5049 -0.0301
  296SOL    HW2  933   1.973   2.514   0.985  1.8583  1.9686  1.2938
  297SOL     OW  934   0.346   2.434   0.618  0.0921  0.6318 -0.2440
  297SOL    HW1  935   0.280   2.505   0.642 -0.4210  2.0808 -1.0129
  297SOL    HW2  936   0.383   2.405   0.705  0.9468  0.4820 -0.0678
  298SOL     OW  937   0.979   1.714   1.851  0.6450  0.3544  0.4429
  298SOL    HW1  938   1.068   1.703   1.888 -1.8020 -0.3374 -1.9465
  298SOL    HW2  939   0.957   1.624   1.808 -1.6822  2.3985  2.1946
  299SOL     OW  940   0.405   2.830   2.610  0.1473  0.6898 -0.2713
  299SOL    HW1  941   0.439   2.908   2.660 -1.0391  0.0928  0.7738
  299SOL    HW2  942   0.323   2.866   2.574 -0.9659  0.1949 -1.0536
  300SOL     OW  943   2.262   2.030   2.325 -0.0633 -0.4499  0.1794
  300SOL    HW1  944   2.218   1.950   2.354 -0.7174  0.1055 -1.5147
  300SOL    HW2  945   2.296   2.007   2.237 -0.8766  0.3185  0.5994
  301SOL     OW  946   1.333   2.937   2.238  0.7388  0.0279  0.6154
  301SOL    HW1  947   1.357   2.860   2.291 -1.2820  1.7275  1.5112
  301SOL    HW2  948   1.273   2.892   2.177  0.4414  2.6145  1.7379
  302SOL     OW  949   2.209   0.240   0.447 -0.6565  0.0139 -0.5817
  302SOL    HW1  950   2.198   0.296   0.531  1.8033 -0.3730  1.9401
  302SOL    HW2  951   2.195   0.308   0.373  2.2514 -1.6339  1.1802
  303SOL     OW  952   0.835   2.323   1.740  0.9191 -0.2558  0.1581
  303SOL    HW1  953   0.785   2.341   1.657  0.2262  0.3433 -0.0032
  303SOL    HW2  954   0.780   2.369   1.804  1.6101 -1.7651 -1.1112
  304SOL     OW  955   2.014   1.799   2.387  0.1495 -0.4607 -0.1284
  304SOL    HW1  956   2.070   1.723   2.407  0.5911  0.6954 -0.1644
  304SOL    HW2  957   1.933   1.766   2.420  0.6546  1.8258  1.2607
  305SOL     OW  958   2.581   0.385   0.047  0.6737  0.1542 -0.6973
  305SOL    HW1  959   2.523   0.455   0.006  0.0885  0.8186 -1.3718
  305SOL    HW2  960   2.514   0.326   0.095 -0.0355 -0.1499 -0.8273
  306SOL     OW  961   2.997   0.452   2.638 -0.9907 -0.3394 -0.1573
  306SOL    HW1  962   3.066   0.388   2.607 -2.4538 -0.5914  1.9293
  306SOL    HW2  963   3.046   0.506   2.703 -1.6317 -4.4751  1.4687
  307SOL     OW  964   0.550   0.110   1.765  0.0703  0.1044  0.0251
  307SOL    HW1  965   0.598   0.191   1.765 -1.4647  0.5873  0.2339
  307SOL    HW2  966   0.458   0.152   1.782 -0.5682  0.1196  0.4328
  308SOL     OW  967   2.559   0.644   2.572  0.2159 -0.1193 -0.1376
  308SOL    HW1  968   2.608   0.661   2.655  1.8074 -1.0484  1.3941
  308SOL    HW2  969   2.558   0.545   2.586 -1.7459 -2.4952 -0.2478
  309SOL     OW  970   1.966   1.092   0.048 -0.5645 -0.0822 -0.4218
  309SOL    HW1  971   1.890   1.092   0.112  0.8552 -0.9493 -3.3544
  309SOL    HW2  972   2.001   1.184   0.062  1.0738 -0.5677 -1.8401
  310SOL     OW  973   1.919   2.573   1.735 -0.2391  0.3986  0.3117
  310SOL    HW1  974   1.824   2.562   1.719 -0.1734  1.5192 -1.8939
  310SOL    HW2  975   1.933   2.492   1.781  0.9146  1.4474 -0.8370
  311SOL     OW  976   0.358   2.707   1.113  0.6148  0.0852 -0.0232
  311SOL    HW1  977   0.394   2.777   1.173 -0.5130 -1.5068  1.3117
  311SOL    HW2  978   0.450   2.675   1.086 -0.9056  1.4594  1.7961
  312SOL     OW  979   1.154   2.095   1.940  0.1339 -0.0523 -0.2622
  312SOL    HW1  980   1.210   2.046   1.873 -0.3330 -0.9950 -0.8296
  312SOL    HW2  981   1.162   2.019   2.009 -2.0558  0.0753  1.4876
  313SOL     OW  982   2.535   2.678   2.497 -0.1917  0.5322 -0.0307
  313SOL    HW1  983   2.507   2.612   2.427  1.8540  0.0335  2.4951
  313SOL    HW2  984   2.627   2.644   2.520 -1.0886  0.5880 -0.8065
  314SOL     OW  985   0.063   2.906   1.575  0.7005  0.6043  0.6199
  314SOL    HW1  986   0.106   2.985   1.568 -0.9544 -4.3311 -1.7215
  314SOL    HW2  987   0.136   2.839   1.560  0.9393 -0.9676  2.9044
  315SOL     OW  988   2.824   1.734   0.844 -0.4514  0.1930 -0.2802
  315SOL    HW1  989   2.880   1.693   0.916 -0.2191 -0.5087  0.0261
  315SOL    HW2  990   2.874   1.812   0.824 -0.3778  0.2665  3.9062
  316SOL     OW  991   2.800   1.058   1.857 -0.0997  0.3181 -0.1250
  316SOL    HW1  992   2.745   1.134   1.838  0.6585  1.4225 -0.0729
  316SOL    HW2  993   2.745   0.978   1.834 -0.9810 -1.6618 -2.1164
  317SOL     OW  994   0.209   2.978   2.439  0.3647  0.1870 -0.8855
  317SOL    HW1  995   0.222   3.068   2.471 -0.2105 -0.8802  3.0281
  317SOL    HW2  996   0.120   2.985   2.399 -0.2027  1.6070  0.3071
  318SOL     OW  997   1.778   2.321   2.159 -0.8991 -0.7849  0.5372
  318SOL    HW1  998   1.816   2.412   2.188 -1.3182  0.8180  1.4317
  318SOL    HW2  999   1.716   2.318   2.234  0.8075 -0.7718 -1.7485
  319SOL     OW 1000   0.467   2.092   2.060 -0.5214  0.3043 -0.3192
  319SOL    HW1 1001   0.508   2.053   1.979 -1.8559 -1.1020 -2.8186
  319SOL    HW2 1002   0.449   2.183   2.045 -0.4236 -0.3043  0.1548
  320SOL     OW 1003   0.064   1.079   1.326 -0.3579 -0.4999  0.0391
  320SOL    HW1 1004  -0.010   1.037   1.272 -1.5798  0.3986 -3.7095
  320SOL    HW2 1005   0.111   1.112   1.251 -1.8470  0.0609  0.3381
  321SOL     OW 1006   0.676   2.233   1.106 -0.0185  0.3672  0.7674
  321SOL    HW1 1007   0.657   2.323   1.078 -1.6322 -0.4504 -3.1314
  321SOL    HW2 1008   0.653   2.235   1.199  2.0340 -2.1963 -1.3169
  322SOL     OW 1009   1.081   0.305   2.299  0.2568 -0.5113  0.3846
  322SOL    HW1 1010   1.163   0.349   2.281 -0.0424  1.1184 -0.8214
  322SOL    HW2 1011   1.119   0.225   2.348  0.7672  0.9976 -0.4898
  323SOL     OW 1012   0.987   0.635   0.656  1.0179  0.2960  0.1386
  323SOL    HW1 1013   1.021   0.694   0.585  0.6550  1.3062 -0.8467
  323SOL    HW2 1014   1.055   0.651   0.725  0.5323 -1.4867  0.2738
  324SOL     OW 1015   0.589   2.128   1.390 -0.0068  0.0962  0.8233
  324SOL    HW1 1016   0.615   2.204   1.440  0.6001 -0.3885  0.5690
  324SOL    HW2 1017   0.510   2.102   1.435  1.3553  4.0872  1.5299
  325SOL     OW 1018   0.774   0.989   2.990 -0.8863  0.3251 -0.2226
  325SOL    HW1 1019   0.829   0.909   2.995 -1.2074 -3.4194  0.8266
  325SOL    HW2 1020   0.690   0.953   2.946 -0.2372 -0.6876  0.9004
  326SOL     OW 1021   2.586   0.129   2.450 -0.2493 -0.0319  0.4334
  326SOL    HW1 1022   2.624   0.216   2.425 -1.6966 -0.9252  0.9052
  326SOL    HW2 1023   2.618   0.077   2.376  0.5704  0.9611 -1.4473
  327SOL     OW 1024   0.731   0.222   1.273 -0.2304 -0.1000  0.2397
  327SOL    HW1 1025   0.672   0.284   1.318 -1.2910 -1.6271  1.4315
  327SOL    HW2 1026   0.677   0.142   1.282 -0.1670 -0.3360  2.2082
  328SOL     OW 1027   0.727   2.934   2.910 -0.5503 -0.2494  0.0620
  328SOL    HW1 1028   0.820   2.965   2.903  0.2964 -0.0155 -0.3525
  328SOL    HW2 1029   0.719   2.922   3.008  1.9609 -1.1634 -1.0694
  329SOL     OW 1030   1.007   2.890   2.581  0.2037  0.1697 -0.5178
  329SOL    HW1 1031   1.059   2.809   2.566 -0.7553  1.5641  0.8819
  329SOL    HW2 1032   1.051   2.951   2.513 -0.6951  1.5451 -2.2920
  330SOL     OW 1033   2.248   2.863   2.478 -0.7233 -0.1450  0.1461
  330SOL    HW1 1034   2.335   2.833   2.516 -4.9584  1.0953 -0.6724
  330SOL    HW2 1035   2.243   2.949   2.516  0.8731  0.5087  0.4788
  331SOL     OW 1036   1.491   0.950   1.133  0.2930 -0.1303 -0.4472
  331SOL    HW1 1037   1.434   0.985   1.199 -3.6055  1.5390 -3.7288
  331SOL    HW2 1038   1.486   1.032   1.074 -2.1478  2.1297 -2.1900
  332SOL     OW 1039   0.269   1.705   0.410  0.8286  0.8160  0.3470
  332SOL    HW1 1040   0.295   1.791   0.376 -3.2509  0.6142  0.0200
  332SOL    HW2 1041   0.341   1.696   0.476  1.3416  2.1491  1.2014
  333SOL     OW 1042   0.600   2.343   1.572  0.5109  0.0812 -0.3513
  333SOL    HW1 1043   0.548   2.384   1.495  0.1192  1.6931  0.4468
  333SOL    HW2 1044   0.537   2.374   1.642  1.6664  0.7983 -0.4187
  334SOL     OW 1045   2.458   2.171   2.990  0.0894 -0.6723  0.0934
  334SOL    HW1 1046   2.509   2.134   2.912 -1.2075  0.2096  0.4168
  334SOL    HW2 1047   2.393   2.233   2.956 -1.2267  0.3894  2.2429
  335SOL     OW 1048   1.092   1.653   1.175 -0.2204  0.1001 -0.1540
  335SOL    HW1 1049   1.027   1.639   1.249  2.4557  3.6248 -0.0279
  335SOL    HW2 1050   1.161   1.708   1.213 -0.6517 -3.2456 -1.5730
  336SOL     OW 1051   1.307   2.339   0.450  0.6683 -0.1410 -0.0750
  336SOL    HW1 1052   1.394   2.303   0.486  1.3714  3.0283  0.6479
  336SOL    HW2 1053   1.299   2.426   0.503  2.2791 -3.3327 -0.6377
  337SOL     OW 1054   0.142   1.299   2.367 -0.3743  0.4256 -0.6142
  337SOL    HW1 1055   0.113   1.391   2.383  0.9859 -2.6689  1.3738
  337SOL    HW2 1056   0.063   1.245   2.376  0.2258 -5.0956 -0.5013
  338SOL     OW 1057   0.746   1.462   2.385 -0.0523  0.0865  0.5098
  338SOL    HW1 1058   0.683   1.390   2.371  0.4505  2.5038  0.0084
  338SOL    HW2 1059   0.740   1.517   2.302  1.5322 -0.0941  0.3356
  339SOL     OW 1060   2.971   0.864   1.495 -0.0574  0.1552  0.2423
  339SOL    HW1 1061   3.067   0.852   1.515  2.8589 -2.4760 -0.0445
  339SOL    HW2 1062   2.965   0.959   1.505 -1.0489  0.5431 -1.8832
  340SOL     OW 1063   1.244   0.385   2.594  0.5416  0.3507  0.1983
  340SOL    HW1 1064   1.294   0.397   2.510 -3.8176  1.7763 -0.8349
  340SOL    HW2 1065   1.315   0.363   2.647  0.7990  0.7269 -0.0297
  341SOL     OW 1066   2.278   1.162   0.338  0.0718  0.3971  0.3033
  341SOL    HW1 1067   2.187   1.156   0.359 -0.3111 -1.0167  1.0151
  341SOL    HW2 1068   2.309   1.193   0.426  2.0988  0.0624  0.3372
  342SOL     OW 1069   0.588   0.891   2.232 -0.6595 -0.3001 -0.6713
  342SOL    HW1 1070   0.661   0.942   2.262 -2.7484  0.4408 -0.1168
  342SOL    HW2 1071   0.512   0.950   2.252  1.2261  2.1936  3.6111
  343SOL     OW 1072   1.144   0.569   2.047 -0.1098 -0.3097 -0.4849
  343SOL    HW1 1073   1.077   0.626   2.093 -0.3481  0.2697  0.7520
  343SOL    HW2 1074   1.089   0.509   1.996 -1.1599  2.6308 -0.5675
  344SOL     OW 1075   2.358   0.223   0.089  0.3171  0.2524  0.1057
  344SOL    HW1 1076   2.390   0.130   0.081 -1.0202  0.6123 -0.4324
  344SOL    HW2 1077   2.299   0.227   0.012  0.0618  0.2616  1.1975
  345SOL     OW 1078   0.625   1.866   1.349 -0.2280  0.2603  0.3616
  345SOL    HW1 1079   0.693   1.847   1.413  1.6348 -0.8867 -0.5580
  345SOL    HW2 1080   0.618   1.964   1.369  0.4037  0.6459 -1.5465
  346SOL     OW 1081   2.491   2.382   0.275 -0.0577  0.5658 -0.1334
  346SOL    HW1 1082   2.560   2.340   0.219  3.0076  2.3256  0.8519
  346SOL    HW2 1083   2.451   2.433   0.205  1.2763  1.0816  0.1621
  347SOL     OW 1084   0.221   0.140   1.506 -0.0675 -0.0171  0.1832
  347SOL    HW1 1085   0.278   0.177   1.577 -0.5679  1.3626  1.6870
  347SOL    HW2 1086   0.158   0.215   1.487 -0.1660  1.7339  0.0228
  348SOL     OW 1087   0.341   1.401   2.821  0.3458 -0.3904  0.5970
  348SOL    HW1 1088   0.345   1.496   2.832 -0.2032  0.9477 -0.4318
  348SOL    HW2 1089   0.354   1.390   2.722 -1.5543  0.4682 -1.2315
  349SOL     OW 1090   0.861   2.902   2.317 -0.1721  0.6472 -0.5450
  349SOL    HW1 1091   0.951   2.916   2.356 -0.9957  1.2648  0.9509
  349SOL    HW2 1092   0.796   2.901   2.399 -1.6010 -1.1149  0.9414
  350SOL     OW 1093   2.181   2.825   1.004  0.1508  0.2488  0.0562
  350SOL    HW1 1094   2.118   2.753   0.978 -1.1744  0.4657 -0.5752
  350SOL    HW2 1095   2.205   2.793   1.090 -0.0785 -0.0432 -2.0199
  351SOL     OW 1096   1.097   2.531   2.164 -0.1768  0.3720  0.4294
  351SOL    HW1 1097   1.020   2.533   2.234  0.4487 -2.3039 -0.1602
  351SOL    HW2 1098   1.125   2.445   2.167 -2.0382  2.8085 -1.8763
  352SOL     OW 1099   0.311   0.444   0.160 -0.2957 -0.0085  0.0930
  352SOL    HW1 1100   0.269   0.375   0.102  1.8986 -2.0038  0.8329
  352SOL    HW2 1101   0.347   0.381   0.234  0.7659 -1.0257  0.0099
  353SOL     OW 1102   0.392   1.655   2.679 -0.0346  0.2285 -0.0559
  353SOL    HW1 1103   0.486   1.633   2.686 -1.0443  0.0341 -0.4797
  353SOL    HW2 1104   0.372   1.624   2.586  1.2399 -1.3605  0.3864
  354SOL     OW 1105   0.483   0.586   2.997  0.0509 -0.3865 -0.2682
  354SOL    HW1 1106   0.425   0.655   2.975 -1.0788 -0.2342 -0.0197
  354SOL    HW2 1107   0.428   0.553   3.068 -1.2667  1.1357 -0.8179
  355SOL     OW 1108   0.644   1.411   2.052  0.1680  0.3174  0.3536
  355SOL    HW1 1109   0.601   1.359   1.979 -0.1070 -1.0673 -1.4068
  355SOL    HW2 1110   0.633   1.349   2.128  1.4601  1.7255 -1.5873
  356SOL     OW 1111   2.972   2.516   1.647 -1.1615 -0.0847 -0.2696
  356SOL    HW1 1112   3.030   2.434   1.627  1.9830 -0.0689  1.4046
  356SOL    HW2 1113   2.965   2.508   1.749  1.6238  0.9577  0.5376
  357SOL     OW 1114   2.079   2.260   1.171  0.0127  0.2518 -0.1085
  357SOL    HW1 1115   2.025   2.299   1.106 -1.2170  0.2399  2.2411
  357SOL    HW2 1116   2.130   2.187   1.125 -0.8341 -1.2307 -3.1105
  358SOL     OW 1117   1.452   1.934   0.578  0.6596  0.0114  0.9130
  358SOL    HW1 1118   1.409   2.006   0.624 -2.5682 -0.8539 -3.1453
  358SOL    HW2 1119   1.380   1.906   0.514 -0.4259 -1.0032  3.8077
  359SOL     OW 1120   2.394   2.640   1.809 -0.7121  0.0172  0.1046
  359SOL    HW1 1121   2.397   2.682   1.726 -1.8623  0.3067  2.7323
  359SOL    HW2 1122   2.314   2.671   1.848 -0.8261  2.8287  0.7721
  360SOL     OW 1123   2.372   0.355   1.733  0.7290  0.0645  0.0495
  360SOL    HW1 1124   2.335   0.330   1.646 -0.3212 -1.0347 -0.0506
  360SOL    HW2 1125   2.325   0.292   1.796  0.4771 -0.9065 -0.2384
  361SOL     OW 1126   0.211   0.994   2.547  0.0158 -0.4444  0.3017
  361SOL    HW1 1127   0.159   0.948   2.488 -1.1811 -0.1041 -0.8622
  361SOL    HW2 1128   0.136   1.037   2.596  2.0626  0.4784 -0.3208
  362SOL     OW 1129   2.846   0.034   1.091 -0.1628  0.1528 -0.3944
  362SOL    HW1 1130   2.929   0.036   1.150  1.9070 -0.4350 -0.6738
  362SOL    HW2 1131   2.780   0.082   1.144  1.7545 -1.7197 -1.5621
  363SOL     OW 1132   0.095   0.573   1.057  0.4392  0.3451  0.0334
  363SOL    HW1 1133   0.096   0.666   1.051  1.0015  0.4598 -0.2605
  363SOL    HW2 1134   0.166   0.573   1.128  2.3294  0.0355  3.7822
  364SOL     OW 1135   1.000   1.724   2.275  0.2476 -0.3556 -0.4931
  364SOL    HW1 1136   1.008   1.633   2.302 -0.1646 -1.7363  0.4967
  364SOL    HW2 1137   0.922   1.709   2.214 -4.1235  4.2186  0.8214
  365SOL     OW 1138   1.594   2.349   2.357  0.2367  0.4121 -0.5682
  365SOL    HW1 1139   1.521   2.296   2.387  1.9138  2.0142  0.2446
  365SOL    HW2 1140   1.559   2.395   2.276  3.1706  2.3875  2.5698
  366SOL     OW 1141   2.465   0.142   0.465 -0.6314  0.9569 -0.5051
  366SOL    HW1 1142   2.481   0.221   0.521  0.4022  0.1273 -2.0808
  366SOL    HW2 1143   2.371   0.154   0.442  1.2416 -1.3025 -2.1141
  367SOL     OW 1144   0.356   2.118   1.165  0.0289  0.1664  0.5017
  367SOL    HW1 1145   0.341   2.087   1.256 -1.1351 -0.4807 -0.5891
  367SOL    HW2 1146   0.265   2.083   1.135 -1.2410 -2.6037 -0.3446
  368SOL     OW 1147   2.749   0.430   2.078  0.1568  0.0569 -0.0779
  368SOL    HW1 1148   2.660   0.424   2.031 -1.2480  0.6479 -0.4944
  368SOL    HW2 1149   2.810   0.393   2.010 -1.1089  1.6688  0.5875
  369SOL     OW 1150   0.080   1.222   0.991  0.2542 -0.3202  0.0338
  369SOL    HW1 1151   0.067   1.153   0.924 -0.0977 -1.8343 -1.7915
  369SOL    HW2 1152   0.172   1.254   0.975  0.9393 -0.0603 -1.9317
  370SOL     OW 1153   0.800   2.175   0.419 -0.3340  0.3349  0.4635
  370SOL    HW1 1154   0.727   2.219   0.373  2.6791  0.6332 -1.8383
  370SOL    HW2 1155   0.876   2.233   0.410 -0.4808  1.3476 -0.9788
  371SOL     OW 1156   0.000   1.137   2.638  0.0499 -0.2159  0.2900
  371SOL    HW1 1157  -0.061   1.082   2.690  1.4691 -0.8291 -0.3107
  371SOL    HW2 1158  -0.049   1.165   2.560 -1.6505  0.5378 -0.5012
  372SOL     OW 1159   2.976   2.808   2.542 -0.3533  0.0757  0.2094
  372SOL    HW1 1160   3.040   2.732   2.541  1.2811  0.1969 -0.6296
  372SOL    HW2 1161   2.894   2.766   2.562  2.8650  2.1748  0.2752
  373SOL     OW 1162   1.767   2.492   2.527 -0.4852 -0.1666  0.9040
  373SOL    HW1 1163   1.706   2.422   2.504  1.5640 -2.3644  0.7698
  373SOL    HW2 1164   1.808   2.513   2.442 -1.6040 -0.3179 -0.8613
  374SOL     OW 1165   1.416   2.211   0.926  0.5263 -0.2487 -0.5999
  374SOL    HW1 1166   1.388   2.197   0.834 -1.3108  1.5191  0.5891
  374SOL    HW2 1167   1.370   2.139   0.973 -0.3840 -1.0226 -1.2387
  375SOL     OW 1168   1.952   1.463   0.395  0.4928  0.2631  0.8268
  375SOL    HW1 1169   1.993   1.500   0.475 -1.6866  0.2387 -4.3059
  375SOL    HW2 1170   1.872   1.514   0.413  3.0085  3.4609  0.8022
  376SOL     OW 1171   1.053   1.861   2.492  0.3683  0.1874 -0.5486
  376SOL    HW1 1172   1.043   1.826   2.405  0.8064  0.5204 -3.4183
  376SOL    HW2 1173   1.136   1.814   2.522 -3.0402  1.1630  0.7216
  377SOL     OW 1174   0.364   2.428   2.600  0.1392 -0.0455  0.3558
  377SOL    HW1 1175   0.383   2.337   2.560  1.1003 -0.9147 -0.0845
  377SOL    HW2 1176   0.386   2.415   2.697 -1.7472  0.9095  0.2664
  378SOL     OW 1177   2.449   1.664   0.901  0.0939 -0.2191  0.2338
  378SOL    HW1 1178   2.525   1.698   0.847 -1.1246  0.0349 -1.6619
  378SOL    HW2 1179   2.485   1.669   0.987 -1.1615 -0.2942  0.9893
  379SOL     OW 1180   2.698   0.022   2.183  0.2812 -0.4064  0.4054
  379SOL    HW1 1181   2.736   0.043   2.092  1.5859  3.2053  1.5541
  379SOL    HW2 1182   2.630  -0.044   2.160  0.1881  0.9152  0.5294
  380SOL     OW 1183   2.653   2.029   0.601  0.2285  0.0365  0.7235
  380SOL    HW1 1184   2.574   2.081   0.572 -3.0869 -4.1748 -0.4195
  380SOL    HW2 1185   2.693   2.022   0.508  1.3818  3.0739 -0.4662
  381SOL     OW 1186   0.467   2.601   2.441  0.2582  0.5594  0.1258
  381SOL    HW1 1187   0.449   2.522   2.503  0.0403  0.8667 -0.6096
  381SOL    HW2 1188   0.421   2.662   2.499  0.4135 -0.4899 -0.1200
  382SOL     OW 1189   2.481   1.817   1.388  0.4105 -0.3008 -0.1764
  382SOL    HW1 1190   2.525   1.902   1.371  1.0241  0.0377  0.9906
  382SOL    HW2 1191   2.510   1.793   1.480 -3.3961 -1.4914 -2.0033
  383SOL     OW 1192   0.603   2.424   0.466  0.4616 -0.5309 -0.2292
  383SOL    HW1 1193   0.625   2.369   0.542  0.6101  0.2634  1.2062
  383SOL    HW2 1194   0.511   2.441   0.488 -1.0085  1.2246 -1.1045
  384SOL     OW 1195   0.262   0.170   0.822  0.5890  0.7495  0.0881
  384SOL    HW1 1196   0.164   0.148   0.817  0.0032 -1.8203 -0.8895
  384SOL    HW2 1197   0.263   0.271   0.847 -0.1967  2.2649  0.6321
  385SOL     OW 1198   2.890   2.536   1.915 -0.7565  0.0527 -0.1238
  385SOL    HW1 1199   2.794   2.561   1.918  1.9511 -0.6448  1.4256
  385SOL    HW2 1200   2.887   2.492   2.000  3.4658  0.7474  1.2689
  386SOL     OW 1201   2.327   0.694   2.005 -0.2916 -0.0480 -0.5135
  386SOL    HW1 1202   2.371   0.784   1.999  4.8917  0.5387  1.1675
  386SOL    HW2 1203   2.257   0.713   2.067  1.7932  1.0459  0.8797
  387SOL     OW 1204   1.929   0.622   0.880 -0.1033 -0.6501 -0.0971
  387SOL    HW1 1205   2.004   0.643   0.824  1.1817  0.6345  1.1366
  387SOL    HW2 1206   1.860   0.629   0.815  3.4884  0.3294  0.0406
  388SOL     OW 1207   0.072   1.400   1.612 -0.2626  0.2352 -1.2257
  388SOL    HW1 1208   0.135   1.323   1.612 -0.7564  0.2423 -4.0168
  388SOL    HW2 1209   0.042   1.397   1.522  2.0990  1.5419 -1.7824
  389SOL     OW 1210   0.518   2.883   0.284  0.3080  0.3347 -0.0514
  389SOL    HW1 1211   0.537   2.892   0.377 -0.0797 -0.2345 -0.0749
  389SOL    HW2 1212   0.420   2.901   0.281 -0.0351  2.0862  0.6178
  390SOL     OW 1213   0.899   1.280   1.432  0.1307 -0.2055  0.4606
  390SOL    HW1 1214   0.924   1.295   1.522 -1.7554 -1.7785 -1.1488
  390SOL    HW2 1215   0.811   1.243   1.445  0.5764 -1.9210 -2.0311
  391SOL     OW 1216   0.016   1.553   2.483 -0.4513  0.2540 -0.2056
  391SOL    HW1 1217  -0.077   1.563   2.464 -1.3150 -0.6601  1.9870
  391SOL    HW2 1218   0.010   1.494   2.561  0.3187 -1.4160 -1.4659
  392SOL     OW 1219   0.512   2.190   0.051 -0.1957  0.0143  0.4184
  392SOL    HW1 1220   0.565   2.247   0.112  0.3002 -0.1522 -0.8090
  392SOL    HW2 1221   0.545   2.104   0.095 -2.4123  2.1270 -0.9350
  393SOL     OW 1222   1.524   2.257   0.174 -0.0511  0.0248  0.1747
  393SOL    HW1 1223   1.592   2.206   0.221 -3.3175 -0.7227  2.7255
  393SOL    HW2 1224   1.576   2.338   0.183  1.2885  0.0785 -0.4152
  394SOL     OW 1225   1.963   0.129   1.514  1.2101  0.0425  0.2781
  394SOL    HW1 1226   1.873   0.117   1.545  1.0332 -1.8304 -1.4970
  394SOL    HW2 1227   1.934   0.175   1.431  0.0037  1.0040 -0.0497
  395SOL     OW 1228   0.250   2.966   0.346  0.2213  0.4966 -0.3494
  395SOL    HW1 1229   0.208   2.880   0.364 -2.7473  2.6370  0.5387
  395SOL    HW2 1230   0.180   3.017   0.396 -0.1619 -0.9937 -2.3076
  396SOL     OW 1231   1.137   0.325   0.095 -0.1615  0.4428  0.0677
  396SOL    HW1 1232   1.065   0.372   0.042 -3.7524 -0.3358  0.4937
  396SOL    HW2 1233   1.092   0.236   0.106  1.6057  0.9505 -0.7524
  397SOL     OW 1234   2.453   0.464   2.288  0.2622 -0.6241 -0.1801
  397SOL    HW1 1235   2.402   0.417   2.222 -2.3618  2.9357  1.2199
  397SOL    HW2 1236   2.380   0.504   2.343 -1.3750  1.1400  1.6493
  398SOL     OW 1237   1.477   2.427   1.244  0.4477  0.1510 -0.1998
  398SOL    HW1 1238   1.475   2.474   1.331 -3.6867  0.7321 -0.3334
  398SOL    HW2 1239   1.404   2.360   1.257  1.4578 -0.1191 -1.1294
  399SOL     OW 1240   0.287   0.708   0.463  0.2049  0.4025  0.2693
  399SOL    HW1 1241   0.359   0.732   0.402  1.2477 -0.3563 -0.9028
  399SOL    HW2 1242   0.226   0.646   0.415 -1.4230 -0.0330 -0.3270
  400SOL     OW 1243   0.917   2.591   0.898 -0.2171  0.4655 -0.0097
  400SOL    HW1 1244   0.861   2.588   0.974 -0.6681 -0.0791 -1.5800
  400SOL    HW2 1245   0.880   2.665   0.841  2.1873 -0.0789 -3.9055
  401SOL     OW 1246   2.866   2.460   2.813  0.3010  0.5770 -0.9015
  401SOL    HW1 1247   2.908   2.369   2.797 -2.9527 -0.2581 -2.0451
  401SOL    HW2 1248   2.947   2.514   2.834 -1.2906 -1.8278  1.5775
  402SOL     OW 1249   0.935   0.154   1.637 -0.4296 -0.7978 -0.7177
  402SOL    HW1 1250   1.013   0.185   1.593 -0.1350 -0.8436 -1.5608
  402SOL    HW2 1251   0.928   0.062   1.610 -1.1753  3.6433 -1.1469
  403SOL     OW 1252   2.635   1.908   2.594 -0.5008  0.4462  0.4542
  403SOL    HW1 1253   2.613   1.895   2.496  1.8360 -1.7133 -0.9992
  403SOL    HW2 1254   2.685   1.826   2.616  2.3112 -1.9274  0.1852
  404SOL     OW 1255   0.492   2.412   1.321  0.0430 -0.1682  0.0489
  404SOL    HW1 1256   0.393   2.402   1.298  0.5112 -0.2177 -0.4684
  404SOL    HW2 1257   0.523   2.477   1.251  0.8343  0.0881  2.1082
  405SOL     OW 1258   1.731   2.882   2.351 -0.1583 -0.8304  0.0957
  405SOL    HW1 1259   1.649   2.938   2.340 -0.5092 -0.8714  2.2133
  405SOL    HW2 1260   1.707   2.849   2.434 -2.0379 -2.0437  3.0648
  406SOL     OW 1261   0.732   1.795   1.960 -0.0415 -0.4821 -0.1067
  406SOL    HW1 1262   0.818   1.767   1.912 -0.3825 -0.0925  1.2428
  406SOL    HW2 1263   0.738   1.896   1.941 -1.3939 -0.4250 -0.4109
  407SOL     OW 1264   1.230   2.638   2.795 -0.2966  0.0949 -0.6729
  407SOL    HW1 1265   1.204   2.630   2.695  1.3124  1.2778 -2.0802
  407SOL    HW2 1266   1.292   2.706   2.786  0.3351 -0.8390 -2.0121
  408SOL     OW 1267   1.597   2.119   2.014 -0.3643 -0.8187 -0.0220
  408SOL    HW1 1268   1.665   2.151   2.072 -2.2774  1.7222  0.4779
  408SOL    HW2 1269   1.528   2.094   2.077 -2.3206 -1.6242 -0.6829
  409SOL     OW 1270   0.406   1.318   2.547 -0.0427 -0.1130 -0.2164
  409SOL    HW1 1271   0.434   1.226   2.535 -1.2666  0.0663 -0.5036
  409SOL    HW2 1272   0.338   1.317   2.480 -0.3934 -1.8339  1.3721
  410SOL     OW 1273   0.480   0.548   1.698  0.5373 -1.2242 -0.2326
  410SOL    HW1 1274   0.454   0.505   1.775  2.3097  0.1064 -1.1529
  410SOL    HW2 1275   0.402   0.525   1.646  2.6860  1.7147 -1.3732
  411SOL     OW 1276   2.507   2.557   0.533  0.5125 -0.1706 -0.1772
  411SOL    HW1 1277   2.559   2.634   0.492 -1.6338  2.9364  3.2701
  411SOL    HW2 1278   2.473   2.511   0.459  1.8865  0.5328  0.7330
  412SOL     OW 1279   2.085   1.301   2.441 -0.5550 -0.1894  0.3298
  412SOL    HW1 1280   2.173   1.272   2.417 -0.3273  1.6849 -0.2638
  412SOL    HW2 1281   2.047   1.223   2.484 -0.1299 -0.7635 -0.8535
  413SOL     OW 1282   2.842   1.849   1.460 -0.0583 -0.0438  0.9867
  413SOL    HW1 1283   2.787   1.898   1.514  2.9791  0.5332 -1.0722
  413SOL    HW2 1284   2.798   1.761   1.441 -0.7556  2.8393  0.5451
  414SOL     OW 1285   1.087   2.312   2.847  0.3878  0.3516  0.1918
  414SOL    HW1 1286   1.043   2.226   2.862  0.2176 -2.9252 -0.0169
  414SOL    HW2 1287   1.154   2.305   2.920  2.1427  2.1375  0.4704
  415SOL     OW 1288   1.049   2.240   1.375  0.4427 -0.0126  0.3751
  415SOL    HW1 1289   0.992   2.232   1.298 -1.0716  4.3293  1.8914
  415SOL    HW2 1290   1.108   2.306   1.338 -1.5729 -1.0729  1.6075
  416SOL     OW 1291   1.296   1.013   1.316  0.3802  0.5022  0.1241
  416SOL    HW1 1292   1.253   1.016   1.394  0.6347  2.7989  0.7432
  416SOL    HW2 1293   1.262   1.091   1.264  0.7291  2.4035 -0.3390
  417SOL     OW 1294   2.554   2.269   2.368  0.4103  0.6589  0.2259
  417SOL    HW1 1295   2.459   2.289   2.361  1.4192 -0.8041 -2.0073
  417SOL    HW2 1296   2.560   2.248   2.459  0.0560  1.5524  0.6672
  418SOL     OW 1297   2.722   2.027   1.656  0.1808  0.0527  0.0332
  418SOL    HW1 1298   2.813   2.054   1.677 -1.5502 -1.0851  1.4950
  418SOL    HW2 1299   2.695   1.972   1.729 -1.2124  1.7700  1.0962
  419SOL     OW 1300   2.055   1.732   0.186  0.5785  0.1753  0.8304
  419SOL    HW1 1301   2.104   1.683   0.112  0.2185  2.1088 -0.8275
  419SOL    HW2 1302   1.971   1.690   0.182  0.4936 -3.9251 -0.3906
  420SOL     OW 1303   2.497   0.472   1.946  0.2584  0.5640 -0.0530
  420SOL    HW1 1304   2.446   0.544   1.975  0.7601 -2.5210 -0.5200
  420SOL    HW2 1305   2.443   0.412   1.891 -1.4520 -2.0101 -0.1593
  421SOL     OW 1306   2.734   2.378   1.362  0.6788 -0.4131 -0.8719
  421SOL    HW1 1307   2.810   2.439   1.344 -0.8166  0.8338  1.2855
  421SOL    HW2 1308   2.712   2.409   1.450 -0.0876 -3.3046  2.0361
  422SOL     OW 1309   0.613   1.815   0.897  1.0878  0.4977  0.2857
  422SOL    HW1 1310   0.564   1.753   0.835 -2.4819 -0.9646 -0.6463
  422SOL    HW2 1311   0.567   1.908   0.890 -2.5925  0.7505  1.2828
  423SOL     OW 1312   1.188   2.840   0.938  0.5009 -0.4046  0.3700
  423SOL    HW1 1313   1.240   2.812   1.012  1.7778  0.7638 -0.1178
  423SOL    HW2 1314   1.132   2.911   0.968 -0.0275  0.0517 -1.3394
  424SOL     OW 1315   2.071   1.152   2.686 -0.2417 -0.2920  0.1497
  424SOL    HW1 1316   2.056   1.228   2.745  0.8611 -0.1465 -0.9494
  424SOL    HW2 1317   2.171   1.161   2.674  0.7846 -0.1712 -0.3611
  425SOL     OW 1318   0.125   1.912   0.572 -0.0014 -0.4782 -0.9670
  425SOL    HW1 1319   0.120   1.982   0.638  0.4571 -0.8263  1.3746
  425SOL    HW2 1320   0.136   1.834   0.632  0.0187  2.4961 -1.0202
  426SOL     OW 1321   2.565   2.764   1.074 -0.1263  0.1261 -0.0585
  426SOL    HW1 1322   2.584   2.685   1.025 -0.6112 -2.1447  1.5782
  426SOL    HW2 1323   2.550   2.826   1.003  0.8592  1.4730  1.6777
  427SOL     OW 1324   2.502   2.310   2.680  0.4933 -0.2582  0.3755
  427SOL    HW1 1325   2.531   2.220   2.713 -0.2474 -0.1650  0.3888
  427SOL    HW2 1326   2.416   2.321   2.718 -1.9461 -0.3656 -1.1990
  428SOL     OW 1327   1.197   1.527   0.359 -0.6764 -0.8577 -0.3431
  428SOL    HW1 1328   1.198   1.543   0.454 -1.0958  0.1461 -0.4768
  428SOL    HW2 1329   1.103   1.511   0.339  0.9116  0.1650  0.8289
  429SOL     OW 1330   2.192   0.753   2.750 -0.2889  0.0089  0.5418
  429SOL    HW1 1331   2.262   0.810   2.720 -0.9275 -0.0262  1.3819
  429SOL    HW2 1332   2.147   0.804   2.819  1.0597  1.6554 -1.1745
  430SOL     OW 1333   2.414   1.700   0.124 -0.2048 -0.1841 -0.3385
  430SOL    HW1 1334   2.327   1.686   0.080  1.3616 -0.8796 -1.3511
  430SOL    HW2 1335   2.385   1.649   0.201  1.2084 -0.3993  0.0150
  431SOL     OW 1336   0.641   0.774   1.683  0.2714  0.1340  0.0200
  431SOL    HW1 1337   0.702   0.705   1.664  0.0874 -1.1086 -0.1062
  431SOL    HW2 1338   0.571   0.721   1.726  0.1768  1.9190 -0.8017
  432SOL     OW 1339   0.625   1.141   2.713  0.1075 -0.0908 -0.7019
  432SOL    HW1 1340   0.590   1.098   2.636 -0.9271  2.1648  2.0940
  432SOL    HW2 1341   0.541   1.146   2.773 -4.5069 -4.2585 -1.9985
  433SOL     OW 1342   2.049   0.401   2.735  0.3612 -0.0821  0.1528
  433SOL    HW1 1343   2.051   0.484   2.676  0.6071 -0.6495 -1.0227
  433SOL    HW2 1344   2.034   0.327   2.672  0.1252  1.3259 -0.1850
  434SOL     OW 1345   0.498   0.816   0.338 -0.0902  0.0765  0.2498
  434SOL    HW1 1346   0.578   0.762   0.340 -1.4207 -0.8866 -2.5370
  434SOL    HW2 1347   0.528   0.898   0.393 -1.3481  2.6699  0.4626
  435SOL     OW 1348   2.117   0.035   0.103  0.5595  0.0372 -0.2632
  435SOL    HW1 1349   2.086  -0.045   0.148 -0.6773  1.0369  1.8837
  435SOL    HW2 1350   2.056   0.101   0.132  1.1071 -1.0776  0.3429
  436SOL     OW 1351   1.952   1.850   0.498  0.4449 -0.2276  0.4221
  436SOL    HW1 1352   1.876   1.903   0.532 -3.1346  1.0561  0.8500
  436SOL    HW2 1353   2.008   1.903   0.443  0.3390  0.2580  1.2193
  437SOL     OW 1354   1.094   0.668   1.769 -0.0876 -0.7755  0.3948
  437SOL    HW1 1355   1.074   0.670   1.676  0.6182  0.7235  1.4811
  437SOL    HW2 1356   1.006   0.628   1.807  2.0964 -1.2509  1.4244
  438SOL     OW 1357   1.522   1.171   2.017 -0.3007 -0.2738 -0.0794
  438SOL    HW1 1358   1.578   1.094   2.035 -2.3371  0.0224 -0.3879
  438SOL    HW2 1359   1.491   1.131   1.934 -1.6720  1.3961  0.6002
  439SOL     OW 1360   0.769   0.032   0.878  0.4170 -0.2817  0.5493
  439SOL    HW1 1361   0.766  -0.012   0.965 -0.9976  0.0082  1.2532
  439SOL    HW2 1362   0.784  -0.054   0.826 -1.4369 -1.2650 -0.3967
  440SOL     OW 1363   2.242   1.009   1.367 -0.1559  0.3462 -0.2979
  440SOL    HW1 1364   2.328   1.032   1.406 -1.5643 -1.6688 -0.4185
  440SOL    HW2 1365   2.173   1.057   1.417 -4.6886  0.8696 -0.7305
  441SOL     OW 1366   1.062   1.983   0.808  0.1883  0.5736 -0.3486
  441SOL    HW1 1367   1.029   1.960   0.719 -1.0176  0.4072  0.3041
  441SOL    HW2 1368   1.061   1.894   0.851  0.7800  2.0086 -2.2523
  442SOL     OW 1369   0.908   1.562   1.359  0.6603 -0.4003 -0.2210
  442SOL    HW1 1370   0.859   1.519   1.286  0.3997 -0.1357  0.3652
  442SOL    HW2 1371   0.944   1.480   1.398  0.5234 -2.0998 -1.4624
  443SOL     OW 1372   0.141   2.151   0.049  0.3776 -0.0095  0.0971
  443SOL    HW1 1373   0.102   2.233   0.093 -2.7555  0.9480  0.6558
  443SOL    HW2 1374   0.139   2.081   0.123  0.4550  1.7336 -0.1111
  444SOL     OW 1375   0.854   1.589   0.806 -0.1004  0.3388 -0.2145
  444SOL    HW1 1376   0.923   1.657   0.829  1.9189 -2.2668  1.2853
  444SOL    HW2 1377   0.801   1.587   0.888 -2.5229 -1.0608 -0.1254
  445SOL     OW 1378   0.956   2.417   0.702  0.4927 -0.4155  0.4544
  445SOL    HW1 1379   1.048   2.446   0.716  2.1763 -0.3097 -1.5037
  445SOL    HW2 1380   0.913   2.491   0.756 -0.3496  2.2385 -2.3396
  446SOL     OW 1381   0.996   1.324   1.681 -0.4356 -0.2711  0.2748
  446SOL    HW1 1382   1.055   1.402   1.667 -2.6706  1.0135  1.6525
  446SOL    HW2 1383   0.935   1.352   1.750  0.4481 -2.3258 -0.1304
  447SOL     OW 1384   2.036   0.603   2.593 -0.5748  0.1702  0.6761
  447SOL    HW1 1385   2.116   0.657   2.623 -1.2751 -3.2204  1.2655
  447SOL    HW2 1386   2.056   0.592   2.496  1.5171  0.4569 -1.2354
  448SOL     OW 1387   2.212   0.508   1.400 -0.0176 -0.5752  0.5631
  448SOL    HW1 1388   2.270   0.583   1.416 -0.5396  0.8999 -0.2632
  448SOL    HW2 1389   2.249   0.441   1.459  0.6864  0.2551 -2.5386
  449SOL     OW 1390   1.985   1.138   1.407  0.2586 -0.4595 -0.5892
  449SOL    HW1 1391   1.913   1.189   1.364  1.0618  2.3071 -1.2055
  449SOL    HW2 1392   1.934   1.089   1.469 -0.2366 -0.2762 -0.9024
  450SOL     OW 1393   1.172   1.450   0.973 -0.3429  0.2736  0.4725
  450SOL    HW1 1394   1.159   1.520   1.038  2.0915 -1.4794  0.3296
  450SOL    HW2 1395   1.085   1.408   0.991  0.9320  1.3683  0.1753
  451SOL     OW 1396   1.811   2.773   1.039  0.1295 -0.1410 -0.9948
  451SOL    HW1 1397   1.777   2.810   0.959 -4.7062 -1.0147  1.4576
  451SOL    HW2 1398   1.882   2.713   0.999 -1.2545 -0.1590 -0.5880
  452SOL     OW 1399   1.209   1.559   1.983  0.2935 -0.0638  0.5281
  452SOL    HW1 1400   1.164   1.536   2.064 -1.5032 -1.6785 -0.8248
  452SOL    HW2 1401   1.235   1.470   1.946  4.1301 -1.9585  0.9757
  453SOL     OW 1402   1.696   0.737   2.947  0.0255  0.7913 -0.0456
  453SOL    HW1 1403   1.716   0.804   2.886 -1.6214 -0.4137  0.9726
  453SOL    HW2 1404   1.747   0.658   2.921  1.3977  2.4299 -0.4064
  454SOL     OW 1405   2.184   1.071   1.104  0.0098  0.9657 -0.1733
  454SOL    HW1 1406   2.183   1.068   1.204  1.5773  0.0093  1.0588
  454SOL    HW2 1407   2.099   1.111   1.083 -0.4082 -1.5478  1.6788
  455SOL     OW 1408   0.929   2.066   2.701  0.0856  0.3557  0.6519
  455SOL    HW1 1409   0.878   2.129   2.642  0.2223  3.3616 -0.1379
  455SOL    HW2 1410   0.981   2.008   2.644 -3.6988 -0.6488  0.3279
  456SOL     OW 1411   2.866   0.341   0.683  0.2569 -0.0486  0.5818
  456SOL    HW1 1412   2.791   0.405   0.683 -0.4614 -3.7390  1.9252
  456SOL    HW2 1413   2.927   0.385   0.614 -0.8563  1.2926  0.5873
  457SOL     OW 1414   0.331   0.634   0.710 -0.0434 -0.1913  0.3588
  457SOL    HW1 1415   0.300   0.700   0.646 -0.9282  1.6228 -1.0389
  457SOL    HW2 1416   0.394   0.592   0.655  0.1825 -0.3829 -1.4393
  458SOL     OW 1417   2.737   1.731   1.846 -0.2751  0.6867 -0.1086
  458SOL    HW1 1418   2.824   1.729   1.812  2.5120  1.9276  2.1257
  458SOL    HW2 1419   2.743   1.688   1.933  0.4343 -2.0764  2.0917
  459SOL     OW 1420   0.707   1.032   1.775  0.3018 -0.5326  0.2923
  459SOL    HW1 1421   0.719   0.939   1.743  0.9442 -0.4067 -1.2856
  459SOL    HW2 1422   0.800   1.052   1.795  2.2643  0.4125 -2.5350
  460SOL     OW 1423   1.601   1.363   1.797 -0.0552 -0.0201  0.1154
  460SOL    HW1 1424   1.664   1.392   1.873  0.3441 -0.3289 -1.0123
  460SOL    HW2 1425   1.597   1.271   1.817  1.0165  0.0471 -0.5643
  461SOL     OW 1426   1.184   2.791   0.672  0.0303 -0.5593  0.6339
  461SOL    HW1 1427   1.132   2.869   0.635  0.1292  0.5664  0.8341
  461SOL    HW2 1428   1.162   2.800   0.767  2.6972  0.3324  1.5944
  462SOL     OW 1429   1.835   0.989   1.595  0.0815 -0.5760 -0.5133
  462SOL    HW1 1430   1.809   0.900   1.627 -2.7660 -2.2059  2.1581
  462SOL    HW2 1431   1.900   1.015   1.665  0.0826 -1.9149  0.4774
  463SOL     OW 1432   2.779   2.937   1.589  0.2690  0.4364 -0.6587
  463SOL    HW1 1433   2.748   2.883   1.504 -0.0159 -0.3982  1.0895
  463SOL    HW2 1434   2.874   2.925   1.596 -0.7711 -0.6789 -0.1844
  464SOL     OW 1435   1.284   2.017   1.046 -0.0568 -0.5911 -0.2932
  464SOL    HW1 1436   1.270   1.974   1.128 -0.5950 -0.5101 -0.6993
  464SOL    HW2 1437   1.213   1.969   0.993  1.3583  0.3716 -0.4608
  465SOL     OW 1438   1.052   0.588   2.663 -0.2459  0.0301  0.6952
  465SOL    HW1 1439   1.115   0.511   2.653 -0.1800 -1.0960  0.9768
  465SOL    HW2 1440   1.069   0.624   2.748  0.4328  1.6799  1.9020
  466SOL     OW 1441   1.669   2.570   0.463  0.5008  0.1866  0.2826
  466SOL    HW1 1442   1.595   2.605   0.515  3.2391 -1.3715  1.2245
  466SOL    HW2 1443   1.613   2.530   0.392  2.4430  2.1668 -1.8860
  467SOL     OW 1444   1.075   2.112   0.262 -0.4432 -0.0636 -0.2841
  467SOL    HW1 1445   1.057   2.185   0.320  2.4308 -0.2022 -1.4208
  467SOL    HW2 1446   1.029   2.142   0.185  0.7331  2.4516  0.3006
  468SOL     OW 1447   0.902   0.332   2.497  0.3882 -0.3188  0.1722
  468SOL    HW1 1448   0.873   0.426   2.492 -1.4031  0.0004 -0.1780
  468SOL    HW2 1449   0.953   0.328   2.416 -1.4655  2.2436  2.1770
  469SOL     OW 1450   2.277   0.271   2.806 -0.2312  0.3094 -0.2875
  469SOL    HW1 1451   2.186   0.293   2.805  1.5273 -1.2291 -0.8102
  469SOL    HW2 1452   2.290   0.198   2.744 -1.6790  3.3254  1.1046
  470SOL     OW 1453   1.604   1.335   2.776 -0.4837 -0.0931 -0.4180
  470SOL    HW1 1454   1.547   1.256   2.775 -0.8479  0.4237 -0.9037
  470SOL    HW2 1455   1.660   1.325   2.856 -0.9215 -0.5432 -0.4455
  471SOL     OW 1456   0.732   0.581   2.866 -0.4482  0.8145 -0.4995
  471SOL    HW1 1457   0.642   0.566   2.902 -0.5279  0.6360 -1.6427
  471SOL    HW2 1458   0.710   0.581   2.774 -0.1590 -0.1073  0.2548
  472SOL     OW 1459   1.842   2.731   0.286 -0.5422 -0.3630 -0.1085
  472SOL    HW1 1460   1.819   2.729   0.380 -0.5534 -0.4068  3.4294
  472SOL    HW2 1461   1.763   2.700   0.243 -1.8070  2.1899  0.2040
  473SOL     OW 1462   1.447   1.432   2.145  0.2932 -0.1280  0.5918
  473SOL    HW1 1463   1.442   1.399   2.241  0.0701  1.7944 -0.2126
  473SOL    HW2 1464   1.475   1.342   2.108  0.0450 -1.0158 -2.4961
  474SOL     OW 1465   2.322   2.470   0.073  0.4348  0.9369 -0.6079
  474SOL    HW1 1466   2.354   2.565   0.064  0.7855  0.9589 -1.0314
  474SOL    HW2 1467   2.305   2.451  -0.021 -2.3672  2.0003 -2.2706
  475SOL     OW 1468   1.851   2.352   0.283 -0.1945  0.2733  0.2823
  475SOL    HW1 1469   1.918   2.345   0.207 -1.9215 -0.2235  0.3740
  475SOL    HW2 1470   1.860   2.442   0.305  0.7680  0.1910  1.0591
  476SOL     OW 1471   1.443   2.822   1.952  0.3363 -0.1074  0.1881
  476SOL    HW1 1472   1.373   2.872   1.991 -1.4562  0.4540 -1.1992
  476SOL    HW2 1473   1.390   2.746   1.921  1.6141  1.2785 -0.2650
  477SOL     OW 1474   1.800   0.224   0.059 -0.7456 -0.1501 -0.1620
  477SOL    HW1 1475   1.719   0.269   0.096 -1.8618 -1.2864 -1.7896
  477SOL    HW2 1476   1.799   0.136   0.106  1.6957 -2.0623 -0.7216
  478SOL     OW 1477   1.944   0.163   0.642 -0.5521 -0.0597 -0.1521
  478SOL    HW1 1478   1.991   0.102   0.701  0.8233  1.0590 -0.0227
  478SOL    HW2 1479   1.979   0.251   0.669 -0.7543 -0.8291  1.0170
  479SOL     OW 1480   2.575   0.564   1.689  0.5011  0.1277  0.0203
  479SOL    HW1 1481   2.663   0.577   1.722  2.5095  1.2910 -0.5271
  479SOL    HW2 1482   2.518   0.514   1.755  1.8230  2.7105 -1.2222
  480SOL     OW 1483   2.430   1.376   0.207  0.7863  0.1541 -0.8552
  480SOL    HW1 1484   2.384   1.383   0.120 -3.8209 -2.5310 -2.2706
  480SOL    HW2 1485   2.380   1.302   0.249  1.4519 -1.4148  0.0592
  481SOL     OW 1486   1.622   2.719   2.566 -0.4785 -0.5235 -0.3511
  481SOL    HW1 1487   1.581   2.724   2.658 -0.4212  0.6932 -1.0421
  481SOL    HW2 1488   1.662   2.630   2.567 -2.9312 -3.6342 -2.2656
  482SOL     OW 1489   0.819   1.211   0.804  0.7817 -0.2939 -0.0542
  482SOL    HW1 1490   0.884   1.152   0.765  2.7308  1.6455  0.2806
  482SOL    HW2 1491   0.865   1.243   0.881  2.2487 -0.4171 -0.3610
  483SOL     OW 1492   1.470   2.750   2.827 -0.9610 -0.1052 -0.2262
  483SOL    HW1 1493   1.460   2.672   2.880 -1.3867 -1.3620  3.4676
  483SOL    HW2 1494   1.526   2.804   2.893 -2.3360  0.2181  1.9240
  484SOL     OW 1495   1.698   0.531   1.529  0.8177 -0.1349 -0.1829
  484SOL    HW1 1496   1.784   0.494   1.495 -1.2980  0.5584 -0.1806
  484SOL    HW2 1497   1.672   0.466   1.600  1.2933  0.7784 -2.6676
  485SOL     OW 1498   2.189   1.751   0.873 -0.4066 -0.0953  0.4240
  485SOL    HW1 1499   2.153   1.797   0.951  0.8440 -2.0935 -2.8725
  485SOL    HW2 1500   2.284   1.740   0.886 -1.1383  0.0533  2.9149
  486SOL     OW 1501   2.693   0.025   0.044 -0.4869  0.1156  1.1962
  486SOL    HW1 1502   2.657   0.016   0.135 -3.7412 -0.6146  2.8851
  486SOL    HW2 1503   2.624  -0.029  -0.003 -0.8493 -4.2373 -0.2893
  487SOL     OW 1504   2.045   2.160   2.686 -0.8329 -0.0137  0.0536
  487SOL    HW1 1505   1.979   2.218   2.728 -2.3047 -1.2190 -2.6219
  487SOL    HW2 1506   2.030   2.187   2.593  1.3384  2.1434  1.0151
  488SOL     OW 1507   0.430   1.378   1.587  0.2595  0.3441 -0.0300
  488SOL    HW1 1508   0.385   1.435   1.521  0.9699 -0.6131 -1.0451
  488SOL    HW2 1509   0.373   1.298   1.573  0.7220 -0.8100 -1.8135
  489SOL     OW 1510   2.936   0.758   0.396  0.8561 -0.0165 -0.3195
  489SOL    HW1 1511   2.853   0.712   0.397  1.2944  0.8273 -1.2587
  489SOL    HW2 1512   2.990   0.699   0.337 -0.9038 -0.7645  0.4054
  490SOL     OW 1513   2.651   0.113   1.257  0.2412 -0.4620 -0.0085
  490SOL    HW1 1514   2.572   0.136   1.207  2.8246  1.8014 -0.1605
  490SOL    HW2 1515   2.619   0.043   1.315 -2.0000 -1.4010 -0.2884
  491SOL     OW 1516   1.443   1.180   2.978 -0.5424  0.0079  0.2626
  491SOL    HW1 1517   1.414   1.123   2.905 -2.4586  1.1016 -1.7722
  491SOL    HW2 1518   1.440   1.124   3.059 -3.4413  1.5300 -1.2598
  492SOL     OW 1519   2.045   2.972   1.757  0.4106  0.0195 -0.3695
  492SOL    HW1 1520   2.009   2.906   1.696  0.6443 -0.0863  0.4650
  492SOL    HW2 1521   2.060   3.053   1.706  3.8266 -2.6546  1.5563
  493SOL     OW 1522   0.023   0.023   2.698 -0.8594  0.8879 -0.4162
  493SOL    HW1 1523   0.110   0.010   2.740 -0.5499  0.3887  3.0748
  493SOL    HW2 1524   0.014  -0.064   2.651  1.7710 -1.5635 -0.5076
  494SOL     OW 1525   1.967   2.889   1.304 -0.4264  0.8198 -0.1085
  494SOL    HW1 1526   1.964   2.980   1.346  1.0580  0.7272 -1.5423
  494SOL    HW2 1527   1.892   2.887   1.241  1.9485  0.9533 -1.2974
  495SOL     OW 1528   1.682   0.966   2.147 -0.3402 -0.0611  0.3899
  495SOL    HW1 1529   1.700   1.054   2.186 -1.8573 -1.7905  2.6240
  495SOL    HW2 1530   1.763   0.912   2.170 -1.4736 -0.6007  1.2675
  496SOL     OW 1531   1.203   1.468   2.617 -0.4125  0.0741 -0.4112
  496SOL    HW1 1532   1.149   1.459   2.535  1.6018 -1.1276 -2.7835
  496SOL    HW2 1533   1.155   1.422   2.686 -3.3111  0.3922  4.2357
  497SOL     OW 1534   2.157   0.789   1.166  0.2939 -0.1953  0.2135
  497SOL    HW1 1535   2.203   0.856   1.114 -0.6254 -0.0111 -2.5221
  497SOL    HW2 1536   2.159   0.835   1.253 -2.7670 -2.9174 -3.8995
  498SOL     OW 1537   1.465   2.390   2.715  0.0167  0.4854  0.4324
  498SOL    HW1 1538   1.374   2.413   2.725  2.5957  1.0787 -0.3194
  498SOL    HW2 1539   1.460   2.292   2.711  2.3336  3.4840 -1.2271
  499SOL     OW 1540   2.477   0.695   0.682 -0.3140  0.0717  0.1289
  499SOL    HW1 1541   2.511   0.654   0.765 -1.5666  2.2707  1.0774
  499SOL    HW2 1542   2.431   0.765   0.725 -1.8170  3.4345 -0.4982
  500SOL     OW 1543   0.356   1.590   0.135 -0.0902 -0.2392  0.6742
  500SOL    HW1 1544   0.407   1.655   0.079 -2.7133 -1.7455 -0.8868
  500SOL    HW2 1545   0.442   1.541   0.162  3.0968 -1.6144  1.1421
  501SOL     OW 1546   1.490   1.181   1.023  0.1226 -0.2692 -0.4321
  501SOL    HW1 1547   1.546   1.257   1.030  1.8367 -2.7870  0.8622
  501SOL    HW2 1548   1.423   1.213   0.957  0.8961  0.2612 -2.3029
  502SOL     OW 1549   0.474   0.533   2.601 -0.3916  0.3290  0.1012
  502SOL    HW1 1550   0.539   0.484   2.545  1.4866 -1.0640 -0.2573
  502SOL    HW2 1551   0.400   0.555   2.540 -0.2060 -0.1685  1.5118
  503SOL     OW 1552   1.426   1.378   0.502  0.5422  0.4623 -0.3145
  503SOL    HW1 1553   1.345   1.426   0.519 -2.4475  1.1780  0.6897
  503SOL    HW2 1554   1.486   1.453   0.518 -2.9168 -1.4827  0.6090
  504SOL     OW 1555   1.417   2.007   2.206  0.3243 -0.1190  0.3000
  504SOL    HW1 1556   1.337   1.967   2.171 -0.7321  0.4473 -2.0949
  504SOL    HW2 1557   1.375   2.090   2.238 -0.7212 -2.2883 -1.9885
  505SOL     OW 1558   2.851   0.665   2.782  0.0752  0.2922  1.0479
  505SOL    HW1 1559   2.756   0.651   2.816  1.9673  1.1149 -1.6458
  505SOL    HW2 1560   2.871   0.588   2.724 -2.2786  0.8024 -2.8926
  506SOL     OW 1561   2.112   2.402   1.393 -0.7544  0.1485 -0.4628
  506SOL    HW1 1562   2.092   2.352   1.310  0.9745  1.4625 -2.0281
  506SOL    HW2 1563   2.058   2.482   1.378  0.7517 -0.7071  1.1857
  507SOL     OW 1564   2.780   2.561   2.548 -0.1782 -0.2623  0.0354
  507SOL    HW1 1565   2.829   2.499   2.492 -0.1016  5.3374  0.2230
  507SOL    HW2 1566   2.796   2.524   2.639  1.4148 -2.2587  0.1722
  508SOL     OW 1567   0.070   2.281   1.397 -0.1245 -0.0360  0.1118
  508SOL    HW1 1568   0.112   2.332   1.319  2.4165 -1.5350  1.1224
  508SOL    HW2 1569  -0.001   2.231   1.344  1.1270  0.4334 -0.0183
  509SOL     OW 1570   2.863   0.369   1.100 -0.0157 -0.0275  0.1479
  509SOL    HW1 1571   2.934   0.302   1.119  3.0629 -1.4138 -0.9979
  509SOL    HW2 1572   2.928   0.445   1.080  1.0881 -0.8664 -0.7151
  510SOL     OW 1573   2.906   0.509   0.116 -0.2317  0.4648  0.2837
  510SOL    HW1 1574   2.897   0.413   0.094  1.5785  0.1803  3.1334
  510SOL    HW2 1575   2.821   0.538   0.085  0.6963  2.2010 -2.4201
  511SOL     OW 1576   0.919   0.386   2.044  0.1054  0.2259 -0.1878
  511SOL    HW1 1577   0.844   0.433   2.076  2.3667  1.3907  1.0954
  511SOL    HW2 1578   0.977   0.375   2.125  0.1839 -1.2025  0.5642
  512SOL     OW 1579   1.209   1.095   2.173  0.3622 -0.2500  0.3510
  512SOL    HW1 1580   1.133   1.137   2.125  1.7133 -2.8992  2.5336
  512SOL    HW2 1581   1.276   1.087   2.103 -0.1096 -1.4262  0.3006
  513SOL     OW 1582   0.986   2.997   2.832  0.1408 -0.1559  0.3700
  513SOL    HW1 1583   1.000   3.085   2.786 -1.7186  0.9847  1.1699
  513SOL    HW2 1584   1.007   2.941   2.750 -0.5638  0.7045  0.0908
  514SOL     OW 1585   1.250   1.881   2.746 -0.0702 -0.0328  0.6737
  514SOL    HW1 1586   1.271   1.811   2.682 -1.2384  0.5022 -1.0750
  514SOL    HW2 1587   1.240   1.834   2.833 -1.7127 -0.0943  0.7281
  515SOL     OW 1588   2.683   1.374   1.886  0.1469  0.4291 -0.5882
  515SOL    HW1 1589   2.668   1.419   1.801  0.0034  0.1804 -3.6532
  515SOL    HW2 1590   2.779   1.384   1.880 -1.7551  0.1862  1.2279
  516SOL     OW 1591   1.342   0.369   2.299  0.1515 -0.5273 -0.1776
  516SOL    HW1 1592   1.436   0.366   2.324  1.3468 -1.9731  1.1576
  516SOL    HW2 1593   1.344   0.462   2.259 -1.5945  0.1212  1.7002
  517SOL     OW 1594   2.576   0.990   1.360  0.0849 -0.4167 -0.4192
  517SOL    HW1 1595   2.553   0.914   1.309 -1.8360  1.7734 -1.7536
  517SOL    HW2 1596   2.583   1.063   1.295  0.4245 -1.0319  1.3314
  518SOL     OW 1597   0.109   2.563   2.558 -0.1501  0.2365 -0.0594
  518SOL    HW1 1598   0.185   2.504   2.570 -1.4039  1.7058 -0.8858
  518SOL    HW2 1599   0.043   2.502   2.516 -1.7079 -1.3228  2.0145
  519SOL     OW 1600   1.115   2.501   1.051 -0.6113 -0.5982 -0.3411
  519SOL    HW1 1601   1.148   2.593   1.046  0.0565 -0.8950  1.2081
  519SOL    HW2 1602   1.040   2.507   0.993  1.1609 -1.2523 -0.3228
  520SOL     OW 1603   1.605   0.054   0.392  0.4297 -0.1635  0.0553
  520SOL    HW1 1604   1.521   0.015   0.375 -0.7967  3.3426  0.1849
  520SOL    HW2 1605   1.581   0.123   0.455  1.4158 -0.0731 -2.0221
  521SOL     OW 1606   2.314   0.855   1.702 -0.3317 -0.1710  0.2827
  521SOL    HW1 1607   2.352   0.814   1.623 -2.3665  0.1342  1.5889
  521SOL    HW2 1608   2.351   0.948   1.699  0.8955 -0.3418 -0.3711
  522SOL     OW 1609   1.565   1.796   2.604  0.0242 -0.2104 -0.3536
  522SOL    HW1 1610   1.555   1.727   2.670 -0.4651 -2.0444 -1.1296
  522SOL    HW2 1611   1.481   1.780   2.555 -0.8555 -2.0031  0.7701
  523SOL     OW 1612   0.405   2.577   1.802 -0.0424 -0.0346  0.8056
  523SOL    HW1 1613   0.404   2.635   1.883 -1.4780  0.2542 -0.9138
  523SOL    HW2 1614   0.415   2.648   1.735 -0.8809 -0.3548 -0.7643
  524SOL     OW 1615   2.520   2.671   0.050 -0.4483 -0.1335 -0.0729
  524SOL    HW1 1616   2.597   2.710   0.098  2.5762  0.1267 -0.4649
  524SOL    HW2 1617   2.563   2.606  -0.008 -0.6515 -0.1649  0.5125
  525SOL     OW 1618   2.336   2.734   1.245  0.1950  0.6098  0.2551
  525SOL    HW1 1619   2.400   2.723   1.170  3.0922  1.3389 -2.2813
  525SOL    HW2 1620   2.383   2.704   1.326 -0.4309  0.6819 -0.4503
  526SOL     OW 1621   0.163   0.253   2.599  0.1257 -0.5995  0.1216
  526SOL    HW1 1622   0.106   0.180   2.627 -3.1353 -1.3407  3.3870
  526SOL    HW2 1623   0.219   0.278   2.679 -1.4772  1.0080  1.3318
  527SOL     OW 1624   0.280   0.759   2.952 -0.0742 -0.2366 -0.0317
  527SOL    HW1 1625   0.236   0.794   3.029  0.1392  1.4989 -1.4422
  527SOL    HW2 1626   0.212   0.708   2.914 -0.4605  0.1288 -0.2102
  528SOL     OW 1627   1.404   2.673   1.401 -0.3778 -0.5489  0.3247
  528SOL    HW1 1628   1.347   2.724   1.339 -0.2202  2.6775  0.7411
  528SOL    HW2 1629   1.358   2.668   1.486  0.5921  0.5258 -1.4647
  529SOL     OW 1630   2.468   2.237   1.730 -0.2832  0.0765  0.3201
  529SOL    HW1 1631   2.382   2.252   1.682 -0.2253  0.3069 -0.2330
  529SOL    HW2 1632   2.537   2.275   1.669  1.4577 -2.2823 -0.7410
  530SOL     OW 1633   2.682   2.311   0.087 -0.0684  0.1953  0.7948
  530SOL    HW1 1634   2.677   2.396   0.036 -0.0099  1.1755 -0.8783
  530SOL    HW2 1635   2.606   2.277   0.038  0.7640 -0.3331  0.8176
  531SOL     OW 1636   1.432   0.224   1.278 -0.4403 -0.2961 -0.0024
  531SOL    HW1 1637   1.354   0.277   1.271  2.5909 -2.3393  0.4686
  531SOL    HW2 1638   1.502   0.297   1.264  1.4380 -2.4290 -1.3110
  532SOL     OW 1639   2.007   1.357   0.158 -0.2526 -0.1474  0.0860
  532SOL    HW1 1640   2.025   1.418   0.229  1.8461 -4.4610  3.1660
  532SOL    HW2 1641   1.908   1.351   0.166 -1.1731 -2.2503 -0.0506
  533SOL     OW 1642   0.211   2.886   0.959  0.4734 -0.0139  0.3797
  533SOL    HW1 1643   0.253   2.812   1.011 -1.0709  3.1439 -3.3412
  533SOL    HW2 1644   0.112   2.851   0.955  0.7173 -0.8976  1.6669
  534SOL     OW 1645   0.090   0.052   1.257  0.1307  0.1184 -0.1968
  534SOL    HW1 1646   0.120   0.082   1.345  2.1600 -2.4257  0.4793
  534SOL    HW2 1647   0.124   0.130   1.208  0.5338  0.6224  3.1844
  535SOL     OW 1648   0.623   2.568   2.211  0.1333  0.1693 -0.4360
  535SOL    HW1 1649   0.703   2.564   2.251 -2.0452 -0.3026  0.0861
  535SOL    HW2 1650   0.569   2.584   2.294 -0.4166  1.8958  2.2552
  536SOL     OW 1651   2.739   0.578   0.361 -0.2571 -0.1103  0.1346
  536SOL    HW1 1652   2.789   0.545   0.282  1.3395  1.9532  1.3652
  536SOL    HW2 1653   2.653   0.583   0.327  2.0938 -2.4563  0.7868
  537SOL     OW 1654   2.823   1.266   2.963 -0.0499 -0.2347  0.4121
  537SOL    HW1 1655   2.763   1.238   3.035  1.0740 -4.1362  1.0096
  537SOL    HW2 1656   2.863   1.346   3.005  1.9506 -1.1711 -1.1002
  538SOL     OW 1657   2.790   2.704   0.122  0.1520  0.3898  0.4549
  538SOL    HW1 1658   2.864   2.641   0.130  0.9635  1.9386 -1.1181
  538SOL    HW2 1659   2.839   2.781   0.092 -0.9120  1.7939 -0.4258
  539SOL     OW 1660   1.262   1.856   1.274  0.4716  0.3788  0.9979
  539SOL    HW1 1661   1.338   1.842   1.331 -0.7807 -0.1755 -2.4370
  539SOL    HW2 1662   1.200   1.902   1.330 -0.1390 -0.1463  0.8643
  540SOL     OW 1663   1.342   0.001   0.346  0.7252  1.1698  0.1764
  540SOL    HW1 1664   1.252  -0.021   0.327  1.1351  3.4434  0.7706
  540SOL    HW2 1665   1.367   0.017   0.254 -1.2952  0.5697 -0.7047
  541SOL     OW 1666   2.693   2.872   1.343 -0.0857 -0.1453  0.2870
  541SOL    HW1 1667   2.791   2.866   1.315  1.0096  1.1523 -2.9545
  541SOL    HW2 1668   2.662   2.809   1.276 -0.3340 -0.8707  1.4185
  542SOL     OW 1669   2.708   0.342   2.315 -0.0531  0.2502 -0.6470
  542SOL    HW1 1670   2.733   0.346   2.220 -1.5420 -1.2389  1.0914
  542SOL    HW2 1671   2.619   0.384   2.309 -0.1436  1.6430 -1.2516
  543SOL     OW 1672   0.006   0.848   2.377  0.1876 -0.4015  1.0288
  543SOL    HW1 1673  -0.089   0.819   2.409 -0.3725 -0.4323 -0.9396
  543SOL    HW2 1674   0.009   0.794   2.294  1.7013 -3.0865 -0.6899
  544SOL     OW 1675   2.923   1.375   0.677  0.1772  0.0465  0.0736
  544SOL    HW1 1676   2.989   1.438   0.650  1.2191  0.9864 -0.8198
  544SOL    HW2 1677   2.978   1.293   0.681 -1.7449  1.9868  1.8819
  545SOL     OW 1678   1.161   2.909   2.040  0.2117 -0.3134  0.4911
  545SOL    HW1 1679   1.092   2.853   1.997 -0.0248  1.7199 -3.0719
  545SOL    HW2 1680   1.158   2.995   1.988 -1.0667 -0.0026  1.0149
  546SOL     OW 1681   2.806   0.224   2.744 -0.8812  0.2050 -0.1051
  546SOL    HW1 1682   2.829   0.230   2.839  2.7723 -1.6600  2.5237
  546SOL    HW2 1683   2.869   0.155   2.718  0.8508  0.5736 -0.6406
  547SOL     OW 1684   2.592   0.667   2.870  0.0818 -0.2137  0.3275
  547SOL    HW1 1685   2.550   0.716   2.943  2.3345  2.2841 -1.8732
  547SOL    HW2 1686   2.539   0.585   2.861  1.6038  0.8475 -0.7278
  548SOL     OW 1687   1.424   2.980   2.629 -0.4205  0.0990  0.3473
  548SOL    HW1 1688   1.439   2.910   2.697  0.1969  0.4457  0.3667
  548SOL    HW2 1689   1.515   3.008   2.615  1.8470 -1.6684  1.1681
  549SOL     OW 1690   0.941   0.526   0.260  0.3048  0.1599  0.2233
  549SOL    HW1 1691   0.921   0.484   0.173 -0.0684 -1.9329  1.1728
  549SOL    HW2 1692   1.033   0.548   0.265  0.1754  1.0581  0.9779
  550SOL     OW 1693   0.444   2.369   2.047  0.6837  0.0851 -1.1825
  550SOL    HW1 1694   0.516   2.412   2.101  0.8305 -0.5380 -1.9332
  550SOL    HW2 1695   0.371   2.436   2.066  0.9672 -0.4769  2.4210
  551SOL     OW 1696   1.731   0.243   2.796 -0.2594  0.1969 -0.0124
  551SOL    HW1 1697   1.736   0.231   2.891  0.2030  0.4637  1.7559
  551SOL    HW2 1698   1.748   0.339   2.784  0.6898 -0.6666  1.5591
  552SOL     OW 1699   2.296   2.055   1.853 -0.4574 -0.1327  0.1714
  552SOL    HW1 1700   2.364   2.101   1.807  2.6378 -0.6851  0.8578
  552SOL    HW2 1701   2.211   2.103   1.850  0.2868  0.4421  2.3627
  553SOL     OW 1702   1.026   0.005   1.126 -0.2830  0.1740  0.2270
  553SOL    HW1 1703   0.933  -0.020   1.135 -2.4457  1.2583 -1.4687
  553SOL    HW2 1704   1.069  -0.021   1.211  1.7152  2.9243 -1.4127
  554SOL     OW 1705   0.320   2.131   0.789  0.4149 -0.4124  0.4017
  554SOL    HW1 1706   0.355   2.188   0.868  0.3884 -2.3995  0.1266
  554SOL    HW2 1707   0.384   2.056   0.790 -0.3749  1.4499  0.1454
  555SOL     OW 1708   1.885   1.020   2.814  0.1982  0.0126  0.1808
  555SOL    HW1 1709   1.907   1.024   2.911 -0.7468  1.4201  0.7320
  555SOL    HW2 1710   1.968   1.051   2.774 -0.6623 -1.1757 -0.5684
  556SOL     OW 1711   2.349   1.010   0.128  0.0734 -0.1557 -0.2244
  556SOL    HW1 1712   2.328   1.028   0.221 -1.7803 -0.4297  1.2199
  556SOL    HW2 1713   2.323   1.094   0.084  2.2973 -1.3821 -3.0769
  557SOL     OW 1714   0.996   0.091   0.088  0.3583  0.0896 -0.2722
  557SOL    HW1 1715   0.996   0.027   0.011 -0.7997  1.3454  1.7055
  557SOL    HW2 1716   0.898   0.096   0.089  0.3140 -0.4714  0.0313
  558SOL     OW 1717   0.559   1.177   0.696 -0.1270 -0.1525 -0.5417
  558SOL    HW1 1718   0.550   1.114   0.769  0.8972  0.9553 -0.6452
  558SOL    HW2 1719   0.655   1.193   0.701 -1.0397 -0.8691  1.3391
  559SOL     OW 1720   0.489   1.724   1.585  0.1599 -0.3098  0.3881
  559SOL    HW1 1721   0.414   1.674   1.551 -0.7135  0.4823  0.9287
  559SOL    HW2 1722   0.438   1.806   1.608  1.2145  0.0673 -2.5654
  560SOL     OW 1723   0.932   1.450   0.343 -0.5966 -0.3820 -0.2867
  560SOL    HW1 1724   0.901   1.445   0.438 -0.4796  2.2785  0.5278
  560SOL    HW2 1725   0.878   1.380   0.303 -0.5245 -1.0701  1.8963
  561SOL     OW 1726   1.380   0.283   0.535 -0.3996 -0.1125  0.1663
  561SOL    HW1 1727   1.340   0.326   0.454 -1.1283 -0.0197 -0.4218
  561SOL    HW2 1728   1.301   0.244   0.578 -0.0109  0.3256 -3.4692
  562SOL     OW 1729   0.002   0.115   0.774 -0.2670 -0.3737 -0.1525
  562SOL    HW1 1730  -0.071   0.065   0.809  0.1370 -1.2688 -2.1787
  562SOL    HW2 1731  -0.045   0.204   0.769 -2.2884 -1.6427  2.4737
  563SOL     OW 1732   1.792   0.515   2.776 -0.5604  0.2488 -0.5657
  563SOL    HW1 1733   1.893   0.503   2.758  0.4884  1.7519  0.2232
  563SOL    HW2 1734   1.766   0.534   2.682  0.9667 -3.3988  0.0734
  564SOL     OW 1735   2.519   0.792   0.099 -0.2056 -0.0325 -0.2948
  564SOL    HW1 1736   2.446   0.861   0.113  1.6970  1.7140  2.1244
  564SOL    HW2 1737   2.481   0.727   0.155  1.0433  0.6431 -1.8769
  565SOL     OW 1738   2.183   0.596   1.718  0.5093  0.1767 -0.3729
  565SOL    HW1 1739   2.217   0.688   1.746  0.1993  2.8475 -0.0321
  565SOL    HW2 1740   2.265   0.546   1.742  2.5825  1.4895  0.1503
  566SOL     OW 1741   0.027   2.590   0.196 -0.4843 -0.0203 -0.0132
  566SOL    HW1 1742   0.120   2.565   0.197  0.2508  1.5330  0.9923
  566SOL    HW2 1743  -0.014   2.501   0.206  1.4280  1.6956 -0.0495
  567SOL     OW 1744   2.656   1.717   0.476 -0.2292  0.2013  0.8238
  567SOL    HW1 1745   2.672   1.751   0.566  2.0480  0.1278  1.5985
  567SOL    HW2 1746   2.644   1.793   0.421  0.7163  1.3456 -0.9993
  568SOL     OW 1747   1.490   2.375   1.605 -0.2330 -0.3236  0.3622
  568SOL    HW1 1748   1.425   2.365   1.683 -1.8409 -1.4299  0.9752
  568SOL    HW2 1749   1.555   2.306   1.640 -1.2139  0.0601  0.7072
  569SOL     OW 1750   1.432   0.672   2.863  0.0419  0.0074  0.2031
  569SOL    HW1 1751   1.517   0.704   2.909  1.7305  1.6516  2.1153
  569SOL    HW2 1752   1.445   0.723   2.777 -0.0380 -0.7435  0.5072
  570SOL     OW 1753   2.630   0.016   2.703 -0.3664 -0.2772  0.4650
  570SOL    HW1 1754   2.693   0.082   2.748 -2.3693 -0.6799  2.9318
  570SOL    HW2 1755   2.602   0.057   2.617  0.8928  0.4657 -1.0028
  571SOL     OW 1756   1.235   2.325   0.079 -0.2247 -0.1189 -0.5766
  571SOL    HW1 1757   1.236   2.335   0.174 -0.4198  2.1322 -2.3760
  571SOL    HW2 1758   1.327   2.331   0.058 -1.0974 -0.0593  2.9753
  572SOL     OW 1759   1.017   1.094   0.304 -0.1966  0.5129 -0.1710
  572SOL    HW1 1760   1.068   1.061   0.379  1.3039 -0.0345  2.3744
  572SOL    HW2 1761   1.087   1.157   0.279 -0.6410 -3.8426  0.5166
  573SOL     OW 1762   1.868   0.382   1.033  0.6226  0.4472  0.8471
  573SOL    HW1 1763   1.841   0.358   0.939 -1.0160  3.2929 -0.7639
  573SOL    HW2 1764   1.901   0.466   1.019 -1.0118 -2.0465 -0.1958
  574SOL     OW 1765   0.231   2.248   2.384 -0.3609 -0.0799 -0.1948
  574SOL    HW1 1766   0.158   2.215   2.440 -0.0209 -0.5733 -2.1495
  574SOL    HW2 1767   0.265   2.162   2.365  1.7009  0.1203 -2.4992
  575SOL     OW 1768   1.447   1.052   1.788  0.3796 -0.3986 -0.2307
  575SOL    HW1 1769   1.492   1.049   1.700  0.8032  2.0605  0.9976
  575SOL    HW2 1770   1.396   0.965   1.791 -0.0645  2.3857  2.0297
  576SOL     OW 1771   2.035   2.751   1.581  0.2981  0.4195  0.0804
  576SOL    HW1 1772   2.013   2.685   1.648 -0.5735  2.0058 -0.7146
  576SOL    HW2 1773   1.956   2.746   1.526  2.5169  0.6846  0.0988
  577SOL     OW 1774   1.568   0.381   1.693  0.3409 -0.3068  0.1874
  577SOL    HW1 1775   1.543   0.355   1.783 -1.8023 -0.9889 -0.7284
  577SOL    HW2 1776   1.537   0.302   1.643  0.9744 -2.1619 -0.3711
  578SOL     OW 1777   2.954   1.114   2.368 -0.2222  0.7724 -0.2701
  578SOL    HW1 1778   2.957   1.012   2.370  0.6481  1.1072 -2.2880
  578SOL    HW2 1779   2.889   1.138   2.300  0.4065  0.1937  0.7160
  579SOL     OW 1780   0.099   0.280   2.219  0.3010 -0.2681 -0.2163
  579SOL    HW1 1781   0.044   0.199   2.229  1.0705 -2.5895  1.7205
  579SOL    HW2 1782   0.050   0.341   2.269  1.8312  1.0187 -3.3005
  580SOL     OW 1783   0.751   2.582   0.021  0.6791  0.6691 -0.4201
  580SOL    HW1 1784   0.672   2.627  -0.021  0.9699  2.3747  0.0949
  580SOL    HW2 1785   0.816   2.572  -0.048 -1.1846  2.8029 -1.2504
  581SOL     OW 1786   0.085   0.349   0.451  0.5651  0.0416  0.0254
  581SOL    HW1 1787   0.109   0.370   0.355  1.4296 -0.8790 -0.8672
  581SOL    HW2 1788   0.166   0.389   0.489  1.7712  0.9723  1.6843
  582SOL     OW 1789   2.957   2.800   0.949  0.2100  0.0994  0.5835
  582SOL    HW1 1790   2.912   2.881   0.986  0.5447 -0.7103 -0.9832
  582SOL    HW2 1791   2.899   2.791   0.872  2.1028 -0.3679  1.6192
  583SOL     OW 1792   1.428   0.116   0.746 -0.5492 -0.1779  0.7814
  583SOL    HW1 1793   1.426   0.179   0.668 -1.0893  1.7617  2.4159
  583SOL    HW2 1794   1.343   0.137   0.783  0.1397  1.4487 -0.4345
  584SOL     OW 1795   2.956   2.109   1.748 -0.1693 -0.1016 -0.0003
  584SOL    HW1 1796   3.017   2.039   1.739 -0.5855 -1.4224 -0.3811
  584SOL    HW2 1797   3.021   2.181   1.739  0.6312  0.8667 -2.4444
  585SOL     OW 1798   0.894   2.719   0.340 -0.5237  0.2593  0.7849
  585SOL    HW1 1799   0.832   2.708   0.416  0.7352  0.0294  1.8619
  585SOL    HW2 1800   0.918   2.628   0.319  0.6293  1.8862  0.5990
  586SOL     OW 1801   2.882   1.580   2.096  0.5570 -0.4877  0.0128
  586SOL    HW1 1802   2.976   1.581   2.119  0.2818  0.8293 -3.7798
  586SOL    HW2 1803   2.896   1.530   2.011  1.3376 -0.7218 -1.2635
  587SOL     OW 1804   1.982   0.048   2.294  0.0020  0.4085  0.4806
  587SOL    HW1 1805   1.930  -0.005   2.354  0.2291  1.7414 -1.1102
  587SOL    HW2 1806   1.920   0.124   2.288  0.8263  1.1265  1.6546
  588SOL     OW 1807   2.628   2.578   1.904  0.1055 -0.4061 -0.5651
  588SOL    HW1 1808   2.550   2.622   1.857 -0.0417  3.1097 -1.8580
  588SOL    HW2 1809   2.584   2.507   1.957 -1.8052  1.1969  1.0969
  589SOL     OW 1810   1.196   0.268   1.927 -0.2450 -0.4595 -0.0237
  589SOL    HW1 1811   1.244   0.324   1.864  1.8937  1.3378  0.2754
  589SOL    HW2 1812   1.247   0.284   2.009 -0.9168 -0.5213  1.5139
  590SOL     OW 1813   0.101   1.020   1.757  0.4054  0.3137 -0.1601
  590SOL    HW1 1814   0.011   1.000   1.788  1.6611  2.2925 -0.3576
  590SOL    HW2 1815   0.141   0.948   1.812 -1.0018  2.4957 -0.0887
  591SOL     OW 1816   2.640   1.466   1.615  0.4193  0.0517  0.4806
  591SOL    HW1 1817   2.696   1.510   1.554 -1.3298 -0.5780  0.5031
  591SOL    HW2 1818   2.605   1.391   1.556 -1.7378  0.5820 -1.0786
  592SOL     OW 1819   0.676   0.163   0.468 -0.6312  0.2545  0.3284
  592SOL    HW1 1820   0.716   0.249   0.497  0.6069  2.3623 -0.8487
  592SOL    HW2 1821   0.635   0.137   0.551 -2.8531  1.9267 -1.8469
  593SOL     OW 1822   2.101   2.690   1.965  0.1649 -0.3325 -0.2569
  593SOL    HW1 1823   2.056   2.683   1.883 -1.0189  0.9622 -0.1218
  593SOL    HW2 1824   2.033   2.741   2.019  0.8263 -2.5402 -0.0160
  594SOL     OW 1825   1.150   0.651   0.878 -0.1414  1.1308 -0.2569
  594SOL    HW1 1826   1.166   0.557   0.881 -2.5817  0.6452  1.0492
  594SOL    HW2 1827   1.108   0.667   0.961  0.6407 -1.6153  0.1020
  595SOL     OW 1828   0.572   0.565   0.581 -0.9241 -0.3359  0.4595
  595SOL    HW1 1829   0.639   0.578   0.519  1.8517  1.7114  2.4092
  595SOL    HW2 1830   0.628   0.564   0.657 -0.8467 -1.1248 -0.9347
  596SOL     OW 1831   2.387   2.814   0.647  0.0041 -0.3617 -0.8699
  596SOL    HW1 1832   2.368   2.726   0.605  1.2917 -1.9650 -1.3319
  596SOL    HW2 1833   2.324   2.864   0.591 -0.0514 -1.3382  0.0192
  597SOL     OW 1834   0.229   1.792   2.856  0.4736  0.1008 -0.1661
  597SOL    HW1 1835   0.266   1.883   2.837 -0.2432 -0.7576  0.3443
  597SOL    HW2 1836   0.297   1.744   2.806  1.9166  1.2694 -0.8902
  598SOL     OW 1837   1.641   0.119   0.957 -0.4391  0.0899  0.3502
  598SOL    HW1 1838   1.689   0.187   0.908  0.9549  1.0957  0.6776
  598SOL    HW2 1839   1.607   0.063   0.888  0.1736  1.4827  1.4859
  599SOL     OW 1840   1.664   2.681   1.998  0.5034 -0.3974 -1.2232
  599SOL    HW1 1841   1.654   2.635   1.911 -3.8443  1.2082 -0.6226
  599SOL    HW2 1842   1.588   2.743   1.980  2.3602  0.6384  0.7476
  600SOL     OW 1843   2.960   1.567   1.020 -0.0729 -0.0020  0.2048
  600SOL    HW1 1844   3.030   1.526   1.068 -0.1454 -0.8155  2.0133
  600SOL    HW2 1845   2.890   1.550   1.083 -1.5473 -0.0892  0.3308
  601SOL     OW 1846   1.501   0.770   2.056 -0.0449  0.5099  0.5094
  601SOL    HW1 1847   1.585   0.731   2.014  1.1564 -1.4069  1.9826
  601SOL    HW2 1848   1.546   0.842   2.100  0.1421 -2.0313  1.5572
  602SOL     OW 1849   1.464   1.779   1.430 -0.7624 -0.4810 -0.2982
  602SOL    HW1 1850   1.448   1.749   1.525 -3.7126  0.8964  0.2508
  602SOL    HW2 1851   1.518   1.861   1.439 -2.6440 -2.1399 -0.8503
  603SOL     OW 1852   1.694   1.135   0.638  0.0683  0.8399  1.0777
  603SOL    HW1 1853   1.771   1.177   0.669 -3.1456  1.6275 -3.0225
  603SOL    HW2 1854   1.690   1.050   0.686 -1.0460 -1.4052 -1.0488
  604SOL     OW 1855   0.575   0.770   2.668 -0.1622  0.3393  0.5051
  604SOL    HW1 1856   0.536   0.801   2.755 -2.2255  0.4073  0.7357
  604SOL    HW2 1857   0.524   0.682   2.651 -1.2261  1.7979  1.1911
  605SOL     OW 1858   2.194   1.632   2.956 -0.4457  0.2564  0.4141
  605SOL    HW1 1859   2.218   1.585   2.874  0.7580 -1.8233  0.5410
  605SOL    HW2 1860   2.173   1.716   2.913  0.3026 -0.3549  0.6236
  606SOL     OW 1861   0.751   0.640   2.025 -0.6998  0.3587 -0.9042
  606SOL    HW1 1862   0.664   0.674   2.047 -1.4646 -0.4548 -0.2380
  606SOL    HW2 1863   0.803   0.679   2.100  1.0371  0.7017 -1.9751
  607SOL     OW 1864   2.817   0.261   0.014  0.9144  0.3615 -0.1923
  607SOL    HW1 1865   2.777   0.170   0.032 -1.9716  0.8667  1.6610
  607SOL    HW2 1866   2.734   0.311   0.030  2.5616 -1.0314 -1.1749
  608SOL     OW 1867   2.997   1.678   1.659  0.2841  0.3861 -0.0662
  608SOL    HW1 1868   3.025   1.582   1.635  0.5808 -2.1574 -0.4294
  608SOL    HW2 1869   2.943   1.687   1.578 -0.2266 -0.4481 -2.9854
  609SOL     OW 1870   0.262   2.907   0.679 -0.1101  0.5151 -0.3425
  609SOL    HW1 1871   0.261   2.951   0.767 -0.5149 -0.3090  0.4510
  609SOL    HW2 1872   0.217   2.974   0.628  1.2570  2.6669 -1.2590
  610SOL     OW 1873   2.447   0.325   1.152 -0.2069 -0.4231  0.6009
  610SOL    HW1 1874   2.494   0.344   1.066 -0.5984 -1.4597 -2.0191
  610SOL    HW2 1875   2.380   0.395   1.160 -1.9264  2.1859  3.7650
  611SOL     OW 1876   2.710   1.270   2.706  0.3679 -0.1444 -0.4042
  611SOL    HW1 1877   2.617   1.286   2.735  0.1101 -0.9938  2.1628
  611SOL    HW2 1878   2.743   1.250   2.797  3.6739  0.4614 -0.6667
  612SOL     OW 1879   1.129   2.870   1.400  0.1926  0.2803  0.1862
  612SOL    HW1 1880   1.134   2.772   1.403  0.9615  1.4906 -2.0212
  612SOL    HW2 1881   1.050   2.884   1.455  2.4476  1.2676 -1.1656
  613SOL     OW 1882   2.460   1.382   1.096  0.8132 -0.2167 -0.2371
  613SOL    HW1 1883   2.361   1.396   1.106 -4.9332 -2.2972 -1.1488
  613SOL    HW2 1884   2.465   1.389   1.001  1.9044  0.3906 -0.4594
  614SOL     OW 1885   0.133   1.135   2.125  0.0129  0.1142  0.3029
  614SOL    HW1 1886   0.080   1.054   2.133 -2.1393 -0.4097  0.7941
  614SOL    HW2 1887   0.107   1.165   2.214 -2.7388 -3.0371  0.2491
  615SOL     OW 1888   2.478   2.939   0.862  0.0248 -0.0517 -0.2601
  615SOL    HW1 1889   2.433   2.907   0.783 -0.9273  2.6260  0.8194
  615SOL    HW2 1890   2.406   2.980   0.915 -0.7479 -1.1884 -0.4746
  616SOL     OW 1891   1.052   1.188   1.995 -0.4512  0.8375 -0.2790
  616SOL    HW1 1892   1.137   1.230   1.958 -0.5018  0.5965 -0.5529
  616SOL    HW2 1893   1.016   1.147   1.911  1.1496  0.7968 -1.2384
  617SOL     OW 1894   1.939   1.010   0.716  0.3851 -0.3727 -0.3437
  617SOL    HW1 1895   2.035   1.010   0.690  0.8455 -0.0339 -3.2148
  617SOL    HW2 1896   1.924   0.921   0.684  3.2809  1.3260  1.8266
  618SOL     OW 1897   2.392   1.140   1.727  0.1430  0.2008 -0.0634
  618SOL    HW1 1898   2.391   1.176   1.817  0.2053  2.0618 -1.1377
  618SOL    HW2 1899   2.321   1.197   1.685 -1.2656 -1.1439  1.8937
  619SOL     OW 1900   1.083   2.922   0.304  0.3329 -0.0894 -0.5020
  619SOL    HW1 1901   1.005   2.859   0.311 -1.1728  0.3458 -0.6779
  619SOL    HW2 1902   1.050   2.980   0.233  1.2993  0.1758 -1.7587
  620SOL     OW 1903   1.742   0.673   1.959 -0.2176 -0.5202 -0.2215
  620SOL    HW1 1904   1.801   0.691   2.031 -1.1883 -1.1553  0.2027
  620SOL    HW2 1905   1.753   0.577   1.945  0.1197 -0.7298  1.3501
  621SOL     OW 1906   1.620   0.449   2.283 -0.1808 -0.3090 -0.4859
  621SOL    HW1 1907   1.658   0.511   2.350 -1.1668  2.1975  0.5237
  621SOL    HW2 1908   1.694   0.461   2.218 -1.4018 -2.5046 -0.5178
  622SOL     OW 1909   0.825   2.254   2.508 -0.1118 -0.1449 -0.2070
  622SOL    HW1 1910   0.759   2.196   2.464  0.8126  2.4158  0.3436
  622SOL    HW2 1911   0.773   2.330   2.540  1.9304  1.5782  0.1104
  623SOL     OW 1912   2.962   2.354   2.161  0.3296 -0.3370 -0.0364
  623SOL    HW1 1913   2.944   2.270   2.114 -1.1929 -0.5860  0.2802
  623SOL    HW2 1914   2.868   2.387   2.175  1.3046  2.3189  2.4621
  624SOL     OW 1915   0.025   1.955   0.317 -0.3864 -0.1682  0.2358
  624SOL    HW1 1916   0.066   1.903   0.248 -0.3011  1.0488 -0.1307
  624SOL    HW2 1917   0.081   1.939   0.395 -0.4880  2.1861  2.0816
  625SOL     OW 1918   0.022   2.257   1.030  0.4472  0.6306 -0.0397
  625SOL    HW1 1919   0.111   2.275   0.996  1.8956 -2.1539 -2.1333
  625SOL    HW2 1920  -0.039   2.283   0.959 -0.2008 -1.9355  1.1811
  626SOL     OW 1921   2.625   1.529   2.212  0.2878 -0.0594  0.0750
  626SOL    HW1 1922   2.672   1.455   2.256 -0.1198  0.4654  0.6150
  626SOL    HW2 1923   2.692   1.557   2.153 -1.9731 -1.4659  1.3084
  627SOL     OW 1924   0.314   2.356   0.173 -0.4915 -0.0829 -0.2939
  627SOL    HW1 1925   0.343   2.271   0.128 -1.5195  0.3794 -1.9360
  627SOL    HW2 1926   0.315   2.336   0.269 -0.5853  0.7869  0.1631
  628SOL     OW 1927   2.944   2.316   0.222  0.5832  0.1167 -0.0507
  628SOL    HW1 1928   2.864   2.285   0.184  0.0240  0.5858 -0.0360
  628SOL    HW2 1929   2.927   2.292   0.315  0.7726  2.6500  0.8198
  629SOL     OW 1930   1.343   2.686   1.128  0.3384  0.5005 -0.2736
  629SOL    HW1 1931   1.433   2.700   1.089  0.6495  2.2467 -1.2165
  629SOL    HW2 1932   1.357   2.608   1.182 -1.0942 -0.7917  0.4478
  630SOL     OW 1933   2.973   2.822   1.324 -0.3064 -0.1114 -0.5181
  630SOL    HW1 1934   2.994   2.843   1.415  2.3597 -0.6937 -4.1680
  630SOL    HW2 1935   3.042   2.882   1.278 -1.6535  1.3199  0.1735
  631SOL     OW 1936   2.949   1.459   1.849  0.2745 -0.6047  0.1993
  631SOL    HW1 1937   2.949   1.434   1.752  1.1800 -0.0796  1.5044
  631SOL    HW2 1938   3.046   1.458   1.849  0.7515  2.2959 -0.0562
  632SOL     OW 1939   1.665   0.836   0.206  0.4727  0.6807  0.3397
  632SOL    HW1 1940   1.643   0.795   0.119 -1.0736 -0.0682 -1.7984
  632SOL    HW2 1941   1.650   0.765   0.265  1.8551 -0.2398 -2.0567
  633SOL     OW 1942   0.212   1.609   2.286 -0.1141 -0.3374  0.0362
  633SOL    HW1 1943   0.271   1.664   2.337  1.9309  0.6459 -2.2997
  633SOL    HW2 1944   0.154   1.576   2.355 -0.1087 -0.9719 -0.8083
  634SOL     OW 1945   2.534   1.052   2.326  0.0106  0.5542 -0.4525
  634SOL    HW1 1946   2.577   1.008   2.403 -0.1325 -1.3383  3.3622
  634SOL    HW2 1947   2.589   1.017   2.257  0.1659 -2.4953 -0.7384
  635SOL     OW 1948   1.534   2.963   1.324 -0.8848 -0.0329 -0.0339
  635SOL    HW1 1949   1.476   3.025   1.278  2.0408 -1.0944 -2.5624
  635SOL    HW2 1950   1.614   2.985   1.272 -0.5010  1.4638  1.1548
  636SOL     OW 1951   1.060   2.125   2.329 -0.4983  0.1298  0.1216
  636SOL    HW1 1952   1.084   2.041   2.366  1.6783 -0.3289 -1.8757
  636SOL    HW2 1953   0.980   2.158   2.376 -2.7755  3.2714 -1.2600
  637SOL     OW 1954   0.267   0.511   1.271 -0.5245 -0.3826 -0.0305
  637SOL    HW1 1955   0.238   0.535   1.363  0.3860  1.7388  0.5532
  637SOL    HW2 1956   0.366   0.528   1.276 -0.3744  1.5819 -3.2595
  638SOL     OW 1957   2.377   1.431   2.165  0.5964 -0.2453 -0.1934
  638SOL    HW1 1958   2.305   1.500   2.171 -0.3937 -0.5437  0.6969
  638SOL    HW2 1959   2.461   1.484   2.161  0.4536 -0.5110  0.1568
  639SOL     OW 1960   1.929   0.079   1.977  0.5882  0.1877 -0.0052
  639SOL    HW1 1961   1.953   0.009   1.917  1.2340  1.4161 -0.5476
  639SOL    HW2 1962   1.946   0.037   2.062 -1.2580  3.3957 -2.3676
  640SOL     OW 1963   0.840   0.593   1.791  0.0831 -0.4939 -0.3275
  640SOL    HW1 1964   0.805   0.498   1.800  1.0166  0.8508  1.5381
  640SOL    HW2 1965   0.799   0.629   1.877 -0.8099  0.7088 -1.2876
  641SOL     OW 1966   2.708   2.426   2.194  0.7023  0.1661 -0.1425
  641SOL    HW1 1967   2.664   2.375   2.266  1.7288  0.2165  1.5572
  641SOL    HW2 1968   2.691   2.518   2.220  0.5420 -1.0128 -1.4716
  642SOL     OW 1969   2.978   2.656   2.277  0.4212 -0.5928 -0.1083
  642SOL    HW1 1970   3.044   2.620   2.224  1.0268  0.7502 -2.0699
  642SOL    HW2 1971   3.034   2.691   2.349 -0.4340 -0.5824  1.7722
  643SOL     OW 1972   2.337   1.925   0.682  0.2382  0.0842 -0.1789
  643SOL    HW1 1973   2.285   1.846   0.692  1.0620  0.6410  3.1133
  643SOL    HW2 1974   2.423   1.889   0.706 -1.7848  0.4678 -0.1834
  644SOL     OW 1975   1.028   1.635   2.872  0.6567  0.9433  0.1452
  644SOL    HW1 1976   1.025   1.559   2.930  0.8396  1.4046 -1.0002
  644SOL    HW2 1977   1.108   1.679   2.904  3.1179  2.0208  1.2020
  645SOL     OW 1978   0.914   0.413   2.977 -0.8510  1.1519  0.2519
  645SOL    HW1 1979   0.841   0.470   2.942  0.4361 -0.4872  2.2019
  645SOL    HW2 1980   0.945   0.370   2.893  0.7166  0.6389  0.1808
  646SOL     OW 1981   2.571   1.218   1.509  0.0304 -0.2850  0.3408
  646SOL    HW1 1982   2.534   1.182   1.593 -1.0556  3.6196 -1.7776
  646SOL    HW2 1983   2.579   1.130   1.457 -0.3529 -0.3778  2.3600
  647SOL     OW 1984   0.850   1.420   0.589  0.3999  0.4175 -0.0208
  647SOL    HW1 1985   0.846   1.466   0.673 -1.4643 -2.5603  0.7297
  647SOL    HW2 1986   0.890   1.336   0.615  1.1575 -0.7746  2.2794
  648SOL     OW 1987   0.118   0.604   0.262 -0.2546 -0.2597  0.0618
  648SOL    HW1 1988   0.050   0.581   0.199  0.5278  1.4239  0.8357
  648SOL    HW2 1989   0.196   0.565   0.216 -2.0320  2.0088 -0.5021
  649SOL     OW 1990   1.362   1.664   0.190  0.7959 -0.4053 -0.0773
  649SOL    HW1 1991   1.400   1.725   0.252 -1.1463  0.8810 -0.0635
  649SOL    HW2 1992   1.305   1.621   0.250 -3.7956 -0.0767 -3.1625
  650SOL     OW 1993   2.233   1.283   0.022 -0.7286  0.1604 -0.3752
  650SOL    HW1 1994   2.185   1.299  -0.058  1.3038  0.2536 -0.5290
  650SOL    HW2 1995   2.160   1.310   0.085 -0.4008  0.3158 -1.8811
  651SOL     OW 1996   2.389   0.956   2.024 -0.6380  0.2994  0.5656
  651SOL    HW1 1997   2.465   0.939   2.077 -1.5172  2.3749 -0.8889
  651SOL    HW2 1998   2.412   1.044   1.995 -2.0385  1.2855  1.1802
  652SOL     OW 1999   0.916   2.112   1.170  0.5490 -0.0686 -0.4694
  652SOL    HW1 2000   0.902   2.032   1.116 -1.2423 -0.5284 -0.8923
  652SOL    HW2 2001   0.838   2.162   1.152  1.8399 -0.7841 -2.5482
  653SOL     OW 2002   0.505   2.841   0.556  0.2714 -0.4658 -0.5324
  653SOL    HW1 2003   0.521   2.930   0.593 -0.0725  0.7365 -3.5654
  653SOL    HW2 2004   0.418   2.834   0.591  1.4368  0.6976  1.5877
  654SOL     OW 2005   0.300   0.238   1.749  0.4099  0.1776 -0.2822
  654SOL    HW1 2006   0.230   0.212   1.814 -2.0752  0.1058  2.1368
  654SOL    HW2 2007   0.272   0.332   1.735  1.1527  1.0133 -1.0462
  655SOL     OW 2008   0.837   0.614   2.500 -0.1754 -1.0633 -0.1534
  655SOL    HW1 2009   0.924   0.629   2.545  0.0285 -1.4959  2.9342
  655SOL    HW2 2010   0.784   0.688   2.527  0.1678  1.1295  2.3355
  656SOL     OW 2011   0.648   1.535   1.638 -0.0732 -0.4432 -0.8942
  656SOL    HW1 2012   0.596   1.463   1.612 -1.7358  1.6554 -1.7080
  656SOL    HW2 2013   0.602   1.611   1.602  1.2075  1.5354 -0.7966
  657SOL     OW 2014   1.283   1.315   1.905 -0.4272  0.6087 -0.7241
  657SOL    HW1 2015   1.373   1.294   1.876  2.3037 -0.8144 -1.1164
  657SOL    HW2 2016   1.247   1.348   1.817  1.5731 -2.2445  0.3023
  658SOL     OW 2017   2.148   0.916   2.953  0.1484 -0.3318 -0.1091
  658SOL    HW1 2018   2.081   0.975   2.998 -0.3281  1.1749  0.8347
  658SOL    HW2 2019   2.226   0.946   3.005 -1.8068  1.1241  0.1034
  659SOL     OW 2020   2.215   0.072   2.161 -1.1942 -0.5782 -0.2051
  659SOL    HW1 2021   2.270  -0.008   2.176 -1.1056  1.0791  0.9058
  659SOL    HW2 2022   2.138   0.052   2.215  1.4591 -0.6244 -1.1384
  660SOL     OW 2023   0.123   1.794   1.866 -0.2708 -0.2181  0.0415
  660SOL    HW1 2024   0.168   1.719   1.920 -0.6398 -1.4689  0.4113
  660SOL    HW2 2025   0.092   1.740   1.783 -0.5973  1.9288  1.9305
  661SOL     OW 2026   2.694   1.530   0.249 -0.1596 -0.5199 -0.0681
  661SOL    HW1 2027   2.608   1.480   0.256  1.7874 -1.2920 -2.2048
  661SOL    HW2 2028   2.681   1.598   0.313 -1.5466 -0.9638 -0.5417
  662SOL     OW 2029   0.088   0.569   2.865 -0.5017 -0.0514 -0.2484
  662SOL    HW1 2030   0.008   0.622   2.846 -1.2659 -0.7548  0.7450
  662SOL    HW2 2031   0.053   0.526   2.945 -0.2446 -2.4080  1.9129
  663SOL     OW 2032   2.615   1.630   2.947  0.1830  0.3266 -0.1307
  663SOL    HW1 2033   2.538   1.649   2.999  1.2453  1.9665 -1.1764
  663SOL    HW2 2034   2.675   1.620   3.026 -0.3043  0.3959  1.6602
  664SOL     OW 2035   2.233   2.263   1.608  0.5524  0.4136  0.2205
  664SOL    HW1 2036   2.158   2.221   1.655  0.6888  0.7640 -0.0273
  664SOL    HW2 2037   2.177   2.328   1.553 -1.4468 -1.2634 -0.7930
  665SOL     OW 2038   0.147   0.601   1.972  0.3381  0.1646 -0.0889
  665SOL    HW1 2039   0.210   0.539   1.932 -0.5944 -0.7657 -0.1412
  665SOL    HW2 2040   0.156   0.670   1.903 -1.9202  1.9203 -2.5994
  666SOL     OW 2041   1.703   0.065   2.585 -0.0675 -0.5907  0.2339
  666SOL    HW1 2042   1.700   0.139   2.648  1.1200  2.2301 -1.4578
  666SOL    HW2 2043   1.797   0.061   2.575  1.1660 -0.0544 -0.9823
  667SOL     OW 2044   0.734   0.468   1.529 -0.7218 -0.0458  0.2144
  667SOL    HW1 2045   0.694   0.447   1.616 -1.0317 -0.5755 -0.2169
  667SOL    HW2 2046   0.826   0.486   1.554  3.0898 -1.8405 -1.5616
  668SOL     OW 2047   2.855   1.289   1.132  0.0120 -0.3524  0.0082
  668SOL    HW1 2048   2.840   1.197   1.167 -0.3013  1.1809  2.0294
  668SOL    HW2 2049   2.934   1.272   1.073 -0.3078 -0.8566  3.7017
  669SOL     OW 2050   2.153   1.818   1.909 -0.4648 -0.4431 -0.0929
  669SOL    HW1 2051   2.234   1.875   1.919 -0.0245 -0.3065 -2.6772
  669SOL    HW2 2052   2.160   1.778   1.818 -3.4606 -0.2249  0.2493
  670SOL     OW 2053   2.660   0.918   2.161  0.0125 -0.5232 -0.8236
  670SOL    HW1 2054   2.667   0.821   2.169  0.2740  0.2198 -0.7610
  670SOL    HW2 2055   2.752   0.938   2.127  0.6182  0.6155 -0.2953
  671SOL     OW 2056   2.327   0.187   2.468 -0.9924 -0.2582  0.3193
  671SOL    HW1 2057   2.424   0.156   2.478  2.3381 -1.2165  0.5617
  671SOL    HW2 2058   2.332   0.208   2.376 -1.0735  0.3568 -0.6064
  672SOL     OW 2059   1.606   0.410   1.161 -0.2976  0.0701 -0.1409
  672SOL    HW1 2060   1.692   0.397   1.128 -1.5033  2.2692  0.9307
  672SOL    HW2 2061   1.623   0.496   1.205  2.6401  1.3175 -1.2068
  673SOL     OW 2062   2.947   2.365   2.436  0.3785 -0.1311 -0.1999
  673SOL    HW1 2063   2.945   2.350   2.342 -0.6937  0.2935 -0.0819
  673SOL    HW2 2064   2.967   2.273   2.465 -1.4162 -2.6180 -0.1205
  674SOL     OW 2065   0.587   2.001   0.615 -0.4045 -0.0913  0.3373
  674SOL    HW1 2066   0.494   2.001   0.580  0.5106  0.3797  3.3056
  674SOL    HW2 2067   0.629   2.078   0.574  1.7501  2.0382  0.6267
  675SOL     OW 2068   1.345   0.615   2.210  0.0328  0.1588 -0.2286
  675SOL    HW1 2069   1.383   0.676   2.143 -2.4494 -1.2564 -0.2975
  675SOL    HW2 2070   1.273   0.589   2.151 -1.9140  0.4391  0.9872
  676SOL     OW 2071   1.661   1.559   2.337  0.1345  0.4299 -0.0914
  676SOL    HW1 2072   1.734   1.499   2.343 -2.1802 -0.4836  0.6475
  676SOL    HW2 2073   1.679   1.608   2.423  1.2767 -2.6534  0.1027
  677SOL     OW 2074   0.870   1.061   0.530  0.5624  0.3411  0.5877
  677SOL    HW1 2075   0.902   1.077   0.445 -2.3110  2.5481 -2.4910
  677SOL    HW2 2076   0.771   1.055   0.511 -2.7078 -2.2290 -0.6352
  678SOL     OW 2077   2.094   2.771   0.234  0.5324  0.3817 -0.0726
  678SOL    HW1 2078   2.059   2.756   0.141 -1.2955  0.3753 -0.3435
  678SOL    HW2 2079   2.022   2.729   0.275  3.5496  0.2769  0.1817
  679SOL     OW 2080   2.199   2.941   0.474 -0.0450 -0.0417 -0.6933
  679SOL    HW1 2081   2.126   2.893   0.513 -0.0602  2.8298  4.0351
  679SOL    HW2 2082   2.170   3.036   0.471  0.4238  1.0762  2.4006
  680SOL     OW 2083   1.463   1.444   1.601  0.4030  0.1555  0.2750
  680SOL    HW1 2084   1.519   1.421   1.683 -0.4123  0.5855  1.1700
  680SOL    HW2 2085   1.493   1.379   1.537  0.0294  1.7739 -0.9973
  681SOL     OW 2086   2.880   2.962   0.386  0.2125  0.2218  0.0603
  681SOL    HW1 2087   2.820   2.976   0.462 -2.4807 -0.4604 -0.1899
  681SOL    HW2 2088   2.949   3.024   0.417 -0.1983 -0.4194 -0.0024
  682SOL     OW 2089   2.014   1.554   0.854  0.0774 -0.0167 -0.1629
  682SOL    HW1 2090   2.091   1.625   0.868  1.4144 -0.1245 -0.6610
  682SOL    HW2 2091   1.983   1.535   0.948 -1.4893 -1.0440  1.1655
  683SOL     OW 2092   1.302   0.470   1.744 -0.0028 -0.0029  0.3010
  683SOL    HW1 2093   1.380   0.499   1.774 -1.3044 -1.6562  0.5595
  683SOL    HW2 2094   1.239   0.544   1.760  0.2670 -2.5565  0.0235
  684SOL     OW 2095   1.940   2.603   1.283 -0.4098 -0.0031  0.1407
  684SOL    HW1 2096   1.913   2.613   1.192 -0.2378 -1.3698  1.7591
  684SOL    HW2 2097   1.968   2.688   1.309  0.4821 -0.8946  2.8395
  685SOL     OW 2098   1.845   2.562   2.256  0.0255  0.4045  0.0883
  685SOL    HW1 2099   1.814   2.634   2.200  1.0271  0.6186  0.3618
  685SOL    HW2 2100   1.911   2.599   2.320  0.9244 -1.7882 -1.2425
  686SOL     OW 2101   2.052   0.865   2.447 -0.2663 -0.1807 -0.0978
  686SOL    HW1 2102   1.995   0.884   2.532 -0.0499 -2.2429  1.2714
  686SOL    HW2 2103   2.086   0.949   2.409  1.8449  2.3607  0.2190
  687SOL     OW 2104   0.359   1.990   0.477  0.2136  0.9602 -0.2868
  687SOL    HW1 2105   0.317   2.074   0.432 -3.4061  0.4764  1.7437
  687SOL    HW2 2106   0.278   1.959   0.520  0.5057 -1.6130  1.9074
  688SOL     OW 2107   2.795   1.102   0.439  0.1097  0.0278  0.1287
  688SOL    HW1 2108   2.829   1.006   0.438  4.3879  2.1387  0.5852
  688SOL    HW2 2109   2.879   1.154   0.437 -0.6556  0.2361  0.6047
  689SOL     OW 2110   2.351   2.103   1.380  0.3078 -0.0448  0.0030
  689SOL    HW1 2111   2.299   2.150   1.451 -0.5324 -0.1963  0.4223
  689SOL    HW2 2112   2.445   2.125   1.408  0.0785  0.5942 -1.5236
  690SOL     OW 2113   0.359   1.348   0.642 -0.1962  0.1719  0.2777
  690SOL    HW1 2114   0.430   1.285   0.655  2.7269 -1.2983 -1.5091
  690SOL    HW2 2115   0.287   1.290   0.613  0.9813  0.7921 -1.6082
  691SOL     OW 2116   0.233   0.800   1.597  0.0576  0.0455  0.4186
  691SOL    HW1 2117   0.263   0.779   1.689  2.1466  1.3936 -2.9468
  691SOL    HW2 2118   0.325   0.801   1.550 -0.3784  0.2854 -2.4005
  692SOL     OW 2119   0.571   1.321   1.302  0.1444 -0.1008 -0.1108
  692SOL    HW1 2120   0.515   1.369   1.359  0.2436  0.6009 -0.0234
  692SOL    HW2 2121   0.600   1.246   1.354 -0.4293  0.4426 -0.7236
  693SOL     OW 2122   1.393   0.111   2.956  0.6537 -0.0656  0.1025
  693SOL    HW1 2123   1.387   0.100   2.861 -0.9042 -1.5518 -0.1625
  693SOL    HW2 2124   1.419   0.201   2.961 -0.8761  0.3786  2.6445
  694SOL     OW 2125   2.208   2.080   1.024 -0.1608 -0.2593  0.1073
  694SOL    HW1 2126   2.202   2.112   0.937  1.2035 -1.3520  2.4218
  694SOL    HW2 2127   2.308   2.087   1.037 -1.0722 -2.0160  0.6685
  695SOL     OW 2128   2.926   0.951   2.060 -0.6120  0.0711  0.0956
  695SOL    HW1 2129   2.883   1.003   1.990  0.6891  1.3967  0.0619
  695SOL    HW2 2130   2.893   0.860   2.036 -1.0864 -0.3031 -1.6453
  696SOL     OW 2131   1.000   1.056   1.752 -0.0864  0.0062 -0.2023
  696SOL    HW1 2132   1.021   1.137   1.702 -0.5335 -2.1055 -2.2572
  696SOL    HW2 2133   1.055   0.986   1.702  0.5693  2.1401 -3.4491
  697SOL     OW 2134   2.934   2.934   0.119  0.1237  0.9494 -0.3891
  697SOL    HW1 2135   2.920   2.934   0.217  1.3468 -1.1320 -0.2605
  697SOL    HW2 2136   2.856   2.978   0.079  0.6594  1.5585  2.0024
  698SOL     OW 2137   2.307   1.997   2.685 -0.5169  0.7290  0.1197
  698SOL    HW1 2138   2.228   2.022   2.637 -0.9279 -0.2946 -1.7543
  698SOL    HW2 2139   2.356   1.943   2.619  0.5128 -0.2307  1.2128
  699SOL     OW 2140   0.354   1.543   1.396 -0.3121 -0.3130 -0.1644
  699SOL    HW1 2141   0.268   1.521   1.359 -0.9668 -0.6261 -1.6941
  699SOL    HW2 2142   0.394   1.591   1.320 -2.0017 -1.2431  0.1601
  700SOL     OW 2143   2.751   2.822   1.878  0.4672 -0.2275  0.8565
  700SOL    HW1 2144   2.671   2.879   1.865  0.3741 -0.6796  0.0888
  700SOL    HW2 2145   2.715   2.733   1.905 -1.3117 -1.9453 -0.0787
  701SOL     OW 2146   2.279   0.536   1.148  0.1459 -0.2710  0.4411
  701SOL    HW1 2147   2.245   0.535   1.243  1.3173 -0.7183  1.8139
  701SOL    HW2 2148   2.241   0.624   1.125 -0.7474  0.9781  0.9802
  702SOL     OW 2149   0.941   2.661   1.952 -1.4520 -0.2238  0.5722
  702SOL    HW1 2150   0.991   2.619   2.019  1.8677  0.1332  0.1513
  702SOL    HW2 2151   0.860   2.608   1.944  1.7864  0.7633  2.2439
  703SOL     OW 2152   1.635   2.772   1.524 -0.1988 -0.2933 -0.1528
  703SOL    HW1 2153   1.658   2.846   1.473 -0.8578 -4.0831 -0.7825
  703SOL    HW2 2154   1.555   2.743   1.472 -0.5604  0.6250 -0.0219
  704SOL     OW 2155   1.291   0.842   1.878  0.2127 -0.0279  0.2285
  704SOL    HW1 2156   1.308   0.780   1.949 -1.1953  0.8103 -0.2833
  704SOL    HW2 2157   1.210   0.804   1.843 -4.2769 -0.3937  3.5751
  705SOL     OW 2158   2.118   2.533   2.694  0.2292 -0.1432 -0.3324
  705SOL    HW1 2159   2.151   2.624   2.722 -1.9828  0.2072 -0.0511
  705SOL    HW2 2160   2.103   2.554   2.601  0.5214 -0.7192  3.3767
  706SOL     OW 2161   1.062   0.636   1.476  0.0842  0.3728 -0.2700
  706SOL    HW1 2162   1.161   0.622   1.466  3.0898 -1.6034 -2.4837
  706SOL    HW2 2163   1.029   0.575   1.406 -1.5243 -0.9965  1.8633
  707SOL     OW 2164   2.129   1.863   2.810 -0.0873 -0.1526  0.4758
  707SOL    HW1 2165   2.074   1.943   2.811 -0.7820  0.4396 -1.1020
  707SOL    HW2 2166   2.209   1.902   2.766  2.3691 -0.3665  1.0874
  708SOL     OW 2167   1.724   1.455   2.014  0.3548 -0.2045  0.3542
  708SOL    HW1 2168   1.799   1.414   2.064 -1.1777 -3.7857  4.0987
  708SOL    HW2 2169   1.674   1.485   2.093 -1.1157  2.8680  2.9560
  709SOL     OW 2170   2.455   2.204   0.525 -0.1778 -0.3475 -0.3857
  709SOL    HW1 2171   2.497   2.264   0.459  1.1178 -1.1212  1.7667
  709SOL    HW2 2172   2.372   2.197   0.488 -0.7544  0.4340  1.4232
  710SOL     OW 2173   1.417   0.656   1.173  0.3106  0.2477  0.2810
  710SOL    HW1 2174   1.448   0.745   1.145  1.1620  0.3120 -0.3386
  710SOL    HW2 2175   1.491   0.624   1.228 -2.9303 -0.4713  0.9250
  711SOL     OW 2176   0.766   2.907   2.019 -0.2380  0.3866  0.0146
  711SOL    HW1 2177   0.822   2.858   2.076  0.4344 -0.8564  0.4543
  711SOL    HW2 2178   0.824   2.987   2.005  1.1019 -1.2434 -0.8113
  712SOL     OW 2179   2.716   1.283   2.328 -0.2768 -0.2190  0.5877
  712SOL    HW1 2180   2.739   1.345   2.399  0.5653 -2.0578  1.0928
  712SOL    HW2 2181   2.675   1.210   2.377  1.4723 -0.5788  1.7348
  713SOL     OW 2182   0.819   1.237   2.868 -0.1316  0.0998 -0.5136
  713SOL    HW1 2183   0.832   1.149   2.910  0.9781 -1.0899  0.5825
  713SOL    HW2 2184   0.755   1.211   2.799 -2.0517 -0.5201 -2.9230
  714SOL     OW 2185   0.038   2.136   2.537 -0.0072 -0.1370 -0.3661
  714SOL    HW1 2186  -0.008   2.148   2.622 -1.0945 -1.3680  0.8291
  714SOL    HW2 2187   0.048   2.040   2.550 -0.1613 -1.6503  1.5857
  715SOL     OW 2188   1.440   0.200   1.544  0.2737  0.6318 -0.3972
  715SOL    HW1 2189   1.439   0.189   1.444  1.3896  2.1813  2.7367
  715SOL    HW2 2190   1.373   0.139   1.578  1.9407  0.6954 -0.7683
  716SOL     OW 2191   2.264   2.070   0.163  0.0307 -0.2890 -0.0646
  716SOL    HW1 2192   2.307   1.996   0.221  0.4192 -1.4845  1.1457
  716SOL    HW2 2193   2.337   2.091   0.104 -0.1647 -1.1626 -0.4797
  717SOL     OW 2194   0.728   1.507   2.876  0.3259  0.4994 -0.1118
  717SOL    HW1 2195   0.773   1.424   2.854  5.1146  0.0898  0.5987
  717SOL    HW2 2196   0.720   1.551   2.789 -2.9719 -0.8492 -1.4088
  718SOL     OW 2197   2.664   1.013   2.568 -0.6541 -1.4507 -0.1819
  718SOL    HW1 2198   2.729   0.953   2.602 -0.7288  1.3696  0.8471
  718SOL    HW2 2199   2.685   1.095   2.619  0.3727  0.4917 -1.2783
  719SOL     OW 2200   0.746   2.867   1.143 -0.3196  0.0742  0.5931
  719SOL    HW1 2201   0.717   2.765   1.135  0.1696 -2.5081 -1.1976
  719SOL    HW2 2202   0.663   2.908   1.176 -0.1158  3.6675  0.9871
  720SOL     OW 2203   1.907   0.809   0.566 -0.2984  0.3375 -0.7116
  720SOL    HW1 2204   1.888   0.884   0.502  1.9309 -0.3384  0.1219
  720SOL    HW2 2205   1.846   0.742   0.528 -4.4768  2.5191 -0.3432
  721SOL     OW 2206   0.333   1.835   2.455 -0.2513  0.0329 -0.5765
  721SOL    HW1 2207   0.342   1.900   2.384 -1.1155 -1.3209  0.7274
  721SOL    HW2 2208   0.407   1.865   2.512  0.2282  0.6003 -1.4521
  722SOL     OW 2209   0.980   1.715   0.492 -0.3856 -0.4028 -0.0887
  722SOL    HW1 2210   0.959   1.653   0.420 -1.4284  1.0416  1.6768
  722SOL    HW2 2211   0.887   1.727   0.529  1.0851 -1.3322  0.1785
  723SOL     OW 2212   1.204   2.563   1.597  0.0581  0.0395 -0.3898
  723SOL    HW1 2213   1.271   2.492   1.601  0.8141  2.3479 -0.6709
  723SOL    HW2 2214   1.160   2.547   1.509  3.5618 -1.1046  1.4284
  724SOL     OW 2215   0.171   0.823   1.033 -0.1846 -0.3413  0.3623
  724SOL    HW1 2216   0.263   0.818   1.007  0.1522  2.4781 -1.3614
  724SOL    HW2 2217   0.136   0.886   0.979  2.1779 -2.8294 -0.3310
  725SOL     OW 2218   1.023   1.765   0.942  0.4723  0.2656  0.0350
  725SOL    HW1 2219   1.057   1.722   1.025  1.7159  3.1401 -0.1648
  725SOL    HW2 2220   0.941   1.798   0.977 -1.6667 -1.1465 -0.8440
  726SOL     OW 2221   2.619   1.907   0.090  0.6324  0.1675 -0.0251
  726SOL    HW1 2222   2.551   1.837   0.115 -0.7820  2.6474  0.1061
  726SOL    HW2 2223   2.563   1.957   0.023 -0.4987  0.0882  0.2839
  727SOL     OW 2224   0.731   1.776   0.617 -0.0011  0.0706  0.4036
  727SOL    HW1 2225   0.671   1.854   0.630 -1.5748 -0.9399 -0.1485
  727SOL    HW2 2226   0.742   1.745   0.712  3.3178  0.3984 -0.1726
  728SOL     OW 2227   0.622   2.179   2.785  0.4803  0.6455  0.8660
  728SOL    HW1 2228   0.613   2.201   2.878 -1.6158 -1.3848 -0.5243
  728SOL    HW2 2229   0.653   2.264   2.748  1.3208 -1.7195  0.0753
  729SOL     OW 2230   2.589   2.510   2.861 -0.4508  0.2860  0.2265
  729SOL    HW1 2231   2.681   2.496   2.827  0.4030  1.1391 -2.6310
  729SOL    HW2 2232   2.533   2.453   2.797  0.4007 -0.8456 -1.4965
  730SOL     OW 2233   2.577   2.991   0.269 -0.2768  0.3403  0.0775
  730SOL    HW1 2234   2.549   3.060   0.336  0.4071  1.1771  0.1660
  730SOL    HW2 2235   2.505   2.919   0.282  1.3832  0.9646 -1.3189
  731SOL     OW 2236   0.076   2.164   0.698 -0.5664  0.3996  0.4014
  731SOL    HW1 2237   0.071   2.261   0.718 -1.5628 -0.0283 -0.6342
  731SOL    HW2 2238   0.170   2.166   0.717 -0.3703 -1.0550 -0.7532
  732SOL     OW 2239   1.257   2.278   1.164  0.3100  0.0411  0.0937
  732SOL    HW1 2240   1.215   2.345   1.104  4.2261 -0.5490  0.2188
  732SOL    HW2 2241   1.243   2.193   1.116 -1.3446  1.0763 -0.0312
  733SOL     OW 2242   1.377   2.074   0.011  0.2436  0.1605 -0.0937
  733SOL    HW1 2243   1.296   2.068   0.065  0.0027 -2.5330  1.5999
  733SOL    HW2 2244   1.433   2.139   0.062  1.0805  1.0299 -0.9639
  734SOL     OW 2245   2.351   2.850   0.283 -0.1643  0.0854  0.0779
  734SOL    HW1 2246   2.262   2.806   0.274 -1.0013  1.1888  0.0498
  734SOL    HW2 2247   2.309   2.909   0.347  3.0498  0.5855  1.2891
  735SOL     OW 2248   1.579   0.073   2.237 -0.0423  0.0018  0.6110
  735SOL    HW1 2249   1.602   0.075   2.141  1.5436  0.5736 -1.8500
  735SOL    HW2 2250   1.482   0.059   2.250 -0.2131 -2.6158  2.8309
  736SOL     OW 2251   2.515   0.751   1.253 -0.1023 -0.1223 -0.6345
  736SOL    HW1 2252   2.471   0.793   1.176  1.4731  0.4815  0.1866
  736SOL    HW2 2253   2.567   0.670   1.219  0.8844 -1.5308  1.6163
  737SOL     OW 2254   1.387   1.653   2.283 -0.1370 -0.4644 -0.2450
  737SOL    HW1 2255   1.398   1.590   2.207  0.3640 -1.3069  0.6512
  737SOL    HW2 2256   1.482   1.650   2.308  1.8068  1.2013  0.0803
  738SOL     OW 2257   2.910   1.694   2.914  0.1825  0.5921  0.2080
  738SOL    HW1 2258   2.933   1.620   2.980  0.2124 -0.0723  1.3745
  738SOL    HW2 2259   3.002   1.718   2.891 -0.3780 -0.9475 -1.4179
  739SOL     OW 2260   1.115   2.365   2.587 -0.1232 -0.0526  0.7072
  739SOL    HW1 2261   1.117   2.339   2.681 -0.3852 -2.4201  0.4591
  739SOL    HW2 2262   1.021   2.360   2.571  0.0981  0.0564 -1.9428
  740SOL     OW 2263   1.604   2.149   1.755 -0.1689 -0.1422 -0.5849
  740SOL    HW1 2264   1.697   2.128   1.736 -1.3790  1.4844 -0.3156
  740SOL    HW2 2265   1.608   2.138   1.851  1.1254 -2.5834  3.4354
  741SOL     OW 2266   2.788   1.579   1.416  0.6351 -0.5197  0.3745
  741SOL    HW1 2267   2.733   1.555   1.338 -0.6850  2.6949 -0.5204
  741SOL    HW2 2268   2.859   1.521   1.378  0.7853  1.1915 -2.6398
  742SOL     OW 2269   0.777   2.910   0.181  0.8137  0.3952  0.2872
  742SOL    HW1 2270   0.824   2.828   0.198  1.6068  2.6328 -0.3590
  742SOL    HW2 2271   0.689   2.906   0.232 -1.7654  0.0393  0.8589
  743SOL     OW 2272   1.606   2.927   2.990 -0.0563 -0.1193  0.1586
  743SOL    HW1 2273   1.528   2.986   2.981  0.9553 -0.4931  1.3797
  743SOL    HW2 2274   1.644   2.960   3.069  0.0799 -0.8050 -2.2429
  744SOL     OW 2275   1.285   0.824   0.725 -0.0590  0.4289 -0.2624
  744SOL    HW1 2276   1.260   0.902   0.787  0.5693  1.2107  3.5949
  744SOL    HW2 2277   1.256   0.754   0.780  0.4545 -0.1844 -0.7435
  745SOL     OW 2278   1.204   0.056   2.480 -0.3828  0.4683 -1.0228
  745SOL    HW1 2279   1.251   0.035   2.401  0.6431  0.2326  1.7611
  745SOL    HW2 2280   1.271   0.030   2.550  0.2706  0.6673 -0.1016
  746SOL     OW 2281   2.238   0.351   2.143  0.2186  0.1140  0.1301
  746SOL    HW1 2282   2.179   0.391   2.078 -2.2404 -1.8025 -0.4842
  746SOL    HW2 2283   2.232   0.267   2.108 -1.2908  3.9838  0.9234
  747SOL     OW 2284   0.190   1.513   1.167 -0.3654 -0.2394 -0.0353
  747SOL    HW1 2285   0.249   1.467   1.118  0.6527 -0.2750 -1.2156
  747SOL    HW2 2286   0.211   1.608   1.147  0.9585 -2.5533  0.1147
  748SOL     OW 2287   2.951   2.940   2.002  0.0681  0.4543 -0.4972
  748SOL    HW1 2288   2.870   2.902   1.971 -1.4156 -0.4068  0.9109
  748SOL    HW2 2289   3.010   2.871   1.970 -0.4736  0.9692  0.4561
  749SOL     OW 2290   1.252   2.357   1.826 -0.1709 -0.3667  0.3606
  749SOL    HW1 2291   1.273   2.284   1.887 -0.0889  0.5533 -0.9266
  749SOL    HW2 2292   1.186   2.302   1.767 -1.8771  0.5786 -0.2401
  750SOL     OW 2293   2.466   1.492   0.582  0.3285  0.1417  0.0857
  750SOL    HW1 2294   2.484   1.574   0.544 -1.5738  2.0558 -0.1400
  750SOL    HW2 2295   2.542   1.475   0.635 -0.4746  0.0389  2.1719
  751SOL     OW 2296   2.985   1.427   1.329  0.6611  0.2717  0.7814
  751SOL    HW1 2297   2.946   1.368   1.254 -0.9375 -2.4396 -0.7750
  751SOL    HW2 2298   3.056   1.468   1.273 -0.5719  0.0454 -1.4773
  752SOL     OW 2299   2.998   1.402   2.683 -0.0713  0.0405 -0.0394
  752SOL    HW1 2300   3.007   1.322   2.635 -2.2520  1.4995  0.1118
  752SOL    HW2 2301   3.005   1.373   2.773  1.7355  2.6457  1.8090
  753SOL     OW 2302   2.419   0.707   1.489  0.0737  0.3316  0.0430
  753SOL    HW1 2303   2.464   0.727   1.400  0.6919  0.0892  2.9454
  753SOL    HW2 2304   2.492   0.649   1.533  2.6720  0.0827  1.2015
  754SOL     OW 2305   0.235   2.482   1.245  0.1466 -1.0845  0.0076
  754SOL    HW1 2306   0.191   2.472   1.163  0.4221 -0.8844 -1.6622
  754SOL    HW2 2307   0.279   2.566   1.228  1.3090  2.4567 -0.8644
  755SOL     OW 2308   2.078   1.604   0.588  0.3604 -0.0527 -0.1784
  755SOL    HW1 2309   2.043   1.592   0.679 -0.7333  2.5274  0.6381
  755SOL    HW2 2310   2.049   1.703   0.584 -3.1064  2.8191  1.9823
  756SOL     OW 2311   0.196   0.503   1.643  0.2573 -0.0262  0.1505
  756SOL    HW1 2312   0.115   0.457   1.616 -4.0173  2.5301 -1.3156
  756SOL    HW2 2313   0.166   0.587   1.613 -0.1285 -2.0373  0.5208
  757SOL     OW 2314   0.786   0.912   2.622 -0.4085 -0.2489  0.0997
  757SOL    HW1 2315   0.747   0.986   2.668 -1.9235  0.0502 -0.1059
  757SOL    HW2 2316   0.708   0.852   2.624 -0.9887  1.5887 -0.0889
  758SOL     OW 2317   1.036   0.914   2.746  0.1076 -0.0445 -0.2667
  758SOL    HW1 2318   0.944   0.905   2.709 -1.1663  0.9025  1.1995
  758SOL    HW2 2319   1.078   0.975   2.692 -1.7660  0.5122  4.0803
  759SOL     OW 2320   2.373   1.387   0.834  0.3970 -0.4262 -0.2600
  759SOL    HW1 2321   2.383   1.481   0.819 -0.8218  0.7912 -2.5399
  759SOL    HW2 2322   2.282   1.370   0.807  1.3746 -2.5887  1.0193
  760SOL     OW 2323   0.831   1.477   1.847  0.6111 -0.4197 -0.0880
  760SOL    HW1 2324   0.772   1.509   1.781  0.9894  1.6194 -0.0618
  760SOL    HW2 2325   0.766   1.477   1.916 -2.8843 -2.0190 -1.7475
  761SOL     OW 2326   1.865   0.485   2.176  0.2986 -0.3437  0.0220
  761SOL    HW1 2327   1.906   0.436   2.103  0.7553  1.2940 -1.2826
  761SOL    HW2 2328   1.943   0.502   2.226 -0.9205 -0.0095 -1.3898
  762SOL     OW 2329   0.979   0.095   1.925  0.7145 -0.4297 -0.0671
  762SOL    HW1 2330   1.049   0.164   1.931  2.5727 -0.0461 -0.2366
  762SOL    HW2 2331   0.946   0.111   1.835 -2.5418  0.7771  1.4886
  763SOL     OW 2332   0.480   1.063   1.890 -0.1732 -0.5033 -0.0401
  763SOL    HW1 2333   0.562   1.054   1.840  1.3807 -0.0613  1.8996
  763SOL    HW2 2334   0.463   1.157   1.855 -1.7434 -0.5244  1.0625
  764SOL     OW 2335   1.475   0.771   1.539 -0.6708 -0.1332  0.0431
  764SOL    HW1 2336   1.516   0.834   1.480 -0.2889  0.3451  0.5554
  764SOL    HW2 2337   1.551   0.763   1.605 -1.4841 -1.2795 -0.8465
  765SOL     OW 2338   0.312   1.997   2.247 -0.0144 -0.3893 -0.1190
  765SOL    HW1 2339   0.233   1.988   2.195 -2.0227  2.9062  2.3748
  765SOL    HW2 2340   0.368   2.048   2.182 -0.1511 -0.7860  0.4178
  766SOL     OW 2341   2.639   0.355   0.931 -0.0978 -0.0733  0.4416
  766SOL    HW1 2342   2.671   0.266   0.904  1.0037 -0.9854  0.5309
  766SOL    HW2 2343   2.709   0.389   0.991  1.9999  1.8976 -1.2603
  767SOL     OW 2344   1.238   1.885   0.413 -0.6832  0.2900 -0.1356
  767SOL    HW1 2345   1.169   1.817   0.440 -1.2035  0.5376  0.3999
  767SOL    HW2 2346   1.184   1.960   0.405  1.8318  0.3214  0.2924
  768SOL     OW 2347   0.622   2.994   1.461 -0.1586  0.1412  0.2351
  768SOL    HW1 2348   0.718   3.007   1.477  0.2444  4.2605 -1.4135
  768SOL    HW2 2349   0.574   3.008   1.550  3.4694  1.0242 -0.0905
  769SOL     OW 2350   1.299   2.604   0.170  0.4524  0.4251  0.3589
  769SOL    HW1 2351   1.298   2.663   0.241  0.8859  1.1251  1.0323
  769SOL    HW2 2352   1.208   2.581   0.157  0.5088  1.0430  1.6023
  770SOL     OW 2353   0.210   1.579   2.003 -0.1811 -0.0652 -0.2445
  770SOL    HW1 2354   0.298   1.557   1.977 -0.4482  0.2201 -0.3069
  770SOL    HW2 2355   0.228   1.587   2.101  0.3756 -0.6710  1.2951
  771SOL     OW 2356   1.172   2.272   2.137 -0.2445 -0.1452  0.4892
  771SOL    HW1 2357   1.146   2.214   2.060 -1.4993 -0.5831  0.7285
  771SOL    HW2 2358   1.147   2.218   2.216  0.7698 -1.2625  0.4532
  772SOL     OW 2359   2.715   1.663   2.710  0.9222  0.4873  0.6017
  772SOL    HW1 2360   2.683   1.658   2.802 -1.1028 -0.4198  1.1235
  772SOL    HW2 2361   2.808   1.659   2.741 -1.0275  0.0849 -0.0258
  773SOL     OW 2362   0.143   1.501   0.292 -0.2792  0.0179 -0.0580
  773SOL    HW1 2363   0.218   1.509   0.237 -2.5117  1.2523 -2.1966
  773SOL    HW2 2364   0.164   1.582   0.350  3.1207 -0.3078 -0.6648
  774SOL     OW 2365   2.861   2.265   0.490 -0.0546 -0.2169  0.4797
  774SOL    HW1 2366   2.904   2.215   0.557  2.4872 -0.3505  0.3319
  774SOL    HW2 2367   2.790   2.203   0.473 -1.5986  0.1313  3.2412
  775SOL     OW 2368   0.257   0.039   2.807  0.7811  1.0648  0.0129
  775SOL    HW1 2369   0.262  -0.014   2.887  2.8563  1.6240 -1.6523
  775SOL    HW2 2370   0.344   0.065   2.771 -1.9364 -0.5760  0.5614
  776SOL     OW 2371   0.597   1.957   0.147 -0.0327 -0.0019  1.1095
  776SOL    HW1 2372   0.628   1.911   0.229  0.4922  2.8201 -2.1731
  776SOL    HW2 2373   0.548   1.882   0.101  2.0136  0.5235  0.5145
  777SOL     OW 2374   2.373   2.524   2.336 -0.0506 -0.2402 -0.0428
  777SOL    HW1 2375   2.316   2.462   2.379 -1.6881  0.1949 -5.0924
  777SOL    HW2 2376   2.341   2.504   2.245 -0.0112 -0.5943 -1.9784
  778SOL     OW 2377   0.037   1.151   0.080 -0.3460  0.6329 -0.2033
  778SOL    HW1 2378  -0.044   1.163   0.022 -0.8558  0.3021 -0.5919
  778SOL    HW2 2379   0.037   1.055   0.083  0.6763 -1.3201  0.3638
  779SOL     OW 2380   1.649   1.962   2.353 -0.8308  0.5692  0.0708
  779SOL    HW1 2381   1.656   1.919   2.431 -1.7021  0.3478 -1.1185
  779SOL    HW2 2382   1.555   1.970   2.321 -2.2533  1.0350 -1.8777
  780SOL     OW 2383   1.297   2.107   1.497  0.1791  0.0838 -0.3281
  780SOL    HW1 2384   1.213   2.056   1.510  1.9545 -3.3670 -1.0076
  780SOL    HW2 2385   1.275   2.160   1.416 -1.0662  0.3197 -2.2369
  781SOL     OW 2386   1.629   0.705   0.490  0.0905 -0.3144  0.1448
  781SOL    HW1 2387   1.605   0.605   0.508 -0.3928 -0.6135 -1.3162
  781SOL    HW2 2388   1.618   0.749   0.579 -0.0140 -0.4099  2.8535
  782SOL     OW 2389   1.195   0.619   0.265 -0.1557  0.4470  0.2671
  782SOL    HW1 2390   1.243   0.663   0.339  1.5289 -1.6298  0.9753
  782SOL    HW2 2391   1.129   0.689   0.241 -0.1706 -0.3233 -1.3724
  783SOL     OW 2392   1.654   0.670   1.290 -0.3186  0.0050 -0.0826
  783SOL    HW1 2393   1.741   0.712   1.289  0.5535 -2.3121 -1.1773
  783SOL    HW2 2394   1.651   0.640   1.384  0.3152  1.9049 -0.8354
  784SOL     OW 2395   0.576   0.081   0.701  0.2668 -0.2920 -0.7960
  784SOL    HW1 2396   0.638   0.078   0.774  0.5429 -0.2511  3.1264
  784SOL    HW2 2397   0.510   0.136   0.755 -0.3737  2.2142 -3.0191
  785SOL     OW 2398   0.846   1.804   1.505 -0.0296 -0.6600  0.1137
  785SOL    HW1 2399   0.868   1.722   1.461 -3.1536  0.2421  0.9207
  785SOL    HW2 2400   0.799   1.776   1.583  1.5670  1.9613  0.4111
  786SOL     OW 2401   1.586   0.903   0.720 -0.4834  0.4359  0.1335
  786SOL    HW1 2402   1.612   0.890   0.812 -0.7994 -0.8625 -1.1940
  786SOL    HW2 2403   1.491   0.879   0.718 -0.6444  0.6489 -2.6754
  787SOL     OW 2404   2.041   1.187   0.446  0.3231  0.3557 -0.2332
  787SOL    HW1 2405   1.990   1.268   0.414 -1.4753  0.1230  0.8778
  787SOL    HW2 2406   1.970   1.118   0.430  0.5347 -0.4752 -1.6068
  788SOL     OW 2407   0.975   0.834   0.245  0.3561 -0.1887  0.2995
  788SOL    HW1 2408   0.975   0.929   0.233 -1.1574  0.8753  0.3103
  788SOL    HW2 2409   0.960   0.801   0.153  0.1452 -0.6188 -1.9680
  789SOL     OW 2410   0.507   0.283   0.915 -0.0860  0.2741  0.7296
  789SOL    HW1 2411   0.471   0.207   0.971  0.2064  0.3924 -0.4399
  789SOL    HW2 2412   0.429   0.341   0.901 -1.6698 -0.0720 -1.1660
  790SOL     OW 2413   2.388   2.429   1.278  0.2145 -0.3413 -0.0417
  790SOL    HW1 2414   2.425   2.479   1.357  1.8785 -0.5939  1.2185
  790SOL    HW2 2415   2.290   2.426   1.296 -0.9708  0.9723 -1.3092
  791SOL     OW 2416   1.648   2.586   1.720 -0.1655  0.2198 -0.3566
  791SOL    HW1 2417   1.632   2.653   1.649  0.5196 -0.8000  1.4217
  791SOL    HW2 2418   1.596   2.512   1.692 -0.5175 -0.6777  0.2322
  792SOL     OW 2419   2.608   2.311   1.138  0.1627 -0.2842 -0.6479
  792SOL    HW1 2420   2.656   2.307   1.226  0.3851 -2.7476  2.7987
  792SOL    HW2 2421   2.526   2.351   1.180  1.6337 -2.2273  2.0190
  793SOL     OW 2422   1.546   1.671   0.612 -0.1372 -0.8266  0.1296
  793SOL    HW1 2423   1.508   1.761   0.602  0.5960  1.3256 -1.0480
  793SOL    HW2 2424   1.490   1.640   0.689  1.2999 -2.3120  0.6976
  794SOL     OW 2425   0.634   1.234   2.257 -0.0038  0.1329  0.5929
  794SOL    HW1 2426   0.693   1.168   2.303  1.2641  1.6530 -0.4746
  794SOL    HW2 2427   0.558   1.176   2.228  1.1555  2.7393 -1.1442
  795SOL     OW 2428   1.947   0.474   1.414  0.0128  0.0431 -0.2162
  795SOL    HW1 2429   2.047   0.482   1.428  2.5539  0.2097 -0.0967
  795SOL    HW2 2430   1.941   0.451   1.321  1.8289 -0.6338  0.5986
  796SOL     OW 2431   0.665   2.534   1.832 -0.2381 -0.4632 -0.4642
  796SOL    HW1 2432   0.661   2.598   1.908 -1.4491  1.9396 -3.2769
  796SOL    HW2 2433   0.571   2.531   1.816  0.4946 -2.1774 -1.1637
  797SOL     OW 2434   0.466   0.795   1.480 -0.3278  0.0117 -0.5098
  797SOL    HW1 2435   0.538   0.799   1.544 -0.3135 -0.0091  1.2088
  797SOL    HW2 2436   0.481   0.701   1.444  1.2574 -3.4159  0.0729
  798SOL     OW 2437   0.920   0.744   1.145  0.2986 -0.1844  0.5148
  798SOL    HW1 2438   1.011   0.779   1.134 -1.3460 -1.3009 -1.8943
  798SOL    HW2 2439   0.942   0.650   1.182  0.1759  3.5142  0.7475
  799SOL     OW 2440   1.223   1.023   0.911 -0.1072  0.5415 -0.0542
  799SOL    HW1 2441   1.139   1.021   0.868  3.3437  0.1675 -1.2402
  799SOL    HW2 2442   1.254   1.110   0.873  0.4973 -0.6312  2.2751
  800SOL     OW 2443   1.877   2.364   2.770  0.5498 -0.2231 -0.3759
  800SOL    HW1 2444   1.940   2.434   2.732 -0.0972  0.9268  0.0203
  800SOL    HW2 2445   1.816   2.357   2.695 -1.5851 -0.3799  0.3924
  801SOL     OW 2446   0.862   2.516   1.318  0.2405 -0.0435 -0.6393
  801SOL    HW1 2447   0.815   2.516   1.403 -0.1542  1.3382 -1.9963
  801SOL    HW2 2448   0.785   2.509   1.262  0.1830 -1.9532  3.4360
  802SOL     OW 2449   0.145   2.642   0.659  0.0637 -0.2338  0.2839
  802SOL    HW1 2450   0.167   2.735   0.681 -0.7298 -0.3821 -1.8871
  802SOL    HW2 2451   0.096   2.658   0.576 -0.9850 -0.3981  1.3468
  803SOL     OW 2452   1.378   0.805   2.437  0.1240  0.2052 -0.5481
  803SOL    HW1 2453   1.309   0.862   2.412  0.8274 -2.2953 -1.9291
  803SOL    HW2 2454   1.386   0.739   2.370  2.4897  0.3512  0.2242
  804SOL     OW 2455   2.092   0.397   0.692 -0.4083 -0.2695 -0.4058
  804SOL    HW1 2456   2.073   0.490   0.678 -0.2543  0.0259  0.6507
  804SOL    HW2 2457   2.127   0.392   0.787 -0.0445  0.6907  4.1897
  805SOL     OW 2458   1.209   0.979   0.494  0.3398  0.3060 -0.2708
  805SOL    HW1 2459   1.233   0.885   0.512 -2.7727  1.1108  1.1549
  805SOL    HW2 2460   1.299   1.018   0.477  1.4891 -3.9390 -3.0471
  806SOL     OW 2461   2.587   1.135   1.138 -0.5347  0.4045  0.0352
  806SOL    HW1 2462   2.568   1.223   1.116  1.6924 -0.4559 -1.5693
  806SOL    HW2 2463   2.530   1.094   1.070 -1.3498  2.2552 -2.0386
  807SOL     OW 2464   2.517   1.715   1.664  0.1479  1.0793 -0.3755
  807SOL    HW1 2465   2.584   1.718   1.739 -0.4168 -1.1640 -3.6461
  807SOL    HW2 2466   2.551   1.632   1.632 -0.9990  0.3542 -1.4769
  808SOL     OW 2467   0.668   0.174   2.540  0.3846 -0.1480 -0.0591
  808SOL    HW1 2468   0.731   0.244   2.521  1.6445  0.3709  0.4207
  808SOL    HW2 2469   0.654   0.133   2.448  0.4693  0.9781  0.8942
  809SOL     OW 2470   0.421   0.174   2.087  0.4779  0.2188  0.6871
  809SOL    HW1 2471   0.383   0.208   2.171 -1.1515 -0.2697  1.6849
  809SOL    HW2 2472   0.387   0.082   2.096 -0.5726 -0.5897  2.5254
  810SOL     OW 2473   2.047   2.766   2.982  0.3236 -0.1134  0.2420
  810SOL    HW1 2474   2.129   2.736   2.943 -0.2459 -2.5547 -0.2642
  810SOL    HW2 2475   2.000   2.803   2.905 -3.0222 -0.0352 -0.0088
  811SOL     OW 2476   0.433   2.165   2.585  0.7035  0.0625 -0.0917
  811SOL    HW1 2477   0.361   2.141   2.650  0.5795 -0.1285  1.4877
  811SOL    HW2 2478   0.513   2.159   2.641 -0.7764 -1.6426 -0.1480
  812SOL     OW 2479   2.821   0.196   1.469 -0.1330  0.0081  0.2719
  812SOL    HW1 2480   2.758   0.189   1.395 -1.0316  0.6113 -0.9545
  812SOL    HW2 2481   2.822   0.103   1.491 -0.7613  3.5915  1.6430
  813SOL     OW 2482   0.193   1.240   1.883  0.4416  0.0281 -0.6200
  813SOL    HW1 2483   0.157   1.214   1.975  0.3862 -1.1454  2.2768
  813SOL    HW2 2484   0.174   1.161   1.824 -1.0367  2.6219 -2.1131
  814SOL     OW 2485   0.425   0.069   1.056 -0.0719 -0.4147 -0.0089
  814SOL    HW1 2486   0.341   0.047   1.004 -0.4962 -0.9441  1.7857
  814SOL    HW2 2487   0.434   0.006   1.130  1.2619 -3.2088  1.2578
  815SOL     OW 2488   2.106   0.940   2.030  0.7143 -0.0904 -0.0822
  815SOL    HW1 2489   2.088   0.948   1.935 -0.5795  1.4420 -1.4589
  815SOL    HW2 2490   2.200   0.958   2.042 -1.2621 -0.4514  0.4144
  816SOL     OW 2491   2.596   1.812   0.740 -0.3164 -0.3902 -0.2825
  816SOL    HW1 2492   2.629   1.890   0.690  0.1545  0.4042 -1.3344
  816SOL    HW2 2493   2.680   1.782   0.789 -0.5520 -2.7391  0.1569
  817SOL     OW 2494   2.234   0.372   0.922  0.0904 -0.3779  0.6407
  817SOL    HW1 2495   2.208   0.295   0.973 -0.2527 -1.0595  0.2312
  817SOL    HW2 2496   2.255   0.438   0.995  0.3272  2.6594 -0.6112
  818SOL     OW 2497   0.673   0.096   2.288 -0.0975 -0.0120 -0.4396
  818SOL    HW1 2498   0.605   0.078   2.224  3.4279 -1.9180 -0.5989
  818SOL    HW2 2499   0.740   0.030   2.266  2.9396 -1.1475 -0.8304
  819SOL     OW 2500   2.420   1.865   0.366  0.2161 -0.0395  1.0349
  819SOL    HW1 2501   2.367   1.777   0.369 -0.6090 -1.7565 -1.5541
  819SOL    HW2 2502   2.432   1.899   0.453  0.6942 -2.1868 -1.1169
  820SOL     OW 2503   0.644   0.532   1.159  0.1328  0.7936 -0.6761
  820SOL    HW1 2504   0.679   0.609   1.114  1.4431 -3.7039  0.1962
  820SOL    HW2 2505   0.627   0.463   1.089  2.7331 -2.4426  0.4245
  821SOL     OW 2506   1.342   0.556   1.484  0.0488  0.3593 -0.4238
  821SOL    HW1 2507   1.339   0.512   1.571 -2.3734  0.1799  1.0936
  821SOL    HW2 2508   1.407   0.638   1.492 -1.0842 -1.4820  0.5910
  822SOL     OW 2509   2.362   1.753   2.503  0.0424 -0.7414 -0.5285
  822SOL    HW1 2510   2.407   1.701   2.572 -0.3007  1.6093  0.3029
  822SOL    HW2 2511   2.438   1.754   2.438 -0.3370 -0.0214 -0.6088
  823SOL     OW 2512   2.453   1.297   2.829 -0.4749 -0.1227 -0.0064
  823SOL    HW1 2513   2.420   1.226   2.773  3.0152 -0.1434  1.4400
  823SOL    HW2 2514   2.398   1.278   2.904 -0.2346 -0.6719 -0.7405
  824SOL     OW 2515   2.652   0.659   2.218  0.0626 -0.2699  0.0088
  824SOL    HW1 2516   2.587   0.600   2.262  0.2392  0.7099  0.0568
  824SOL    HW2 2517   2.698   0.598   2.157 -1.7177  1.7988 -0.6918
  825SOL     OW 2518   0.804   1.616   0.122 -0.5413 -0.9443 -0.8172
  825SOL    HW1 2519   0.816   1.577   0.039  0.6676 -1.8787  1.6777
  825SOL    HW2 2520   0.867   1.689   0.123  0.1920  0.3370  2.0041
  826SOL     OW 2521   2.436   2.850   2.675 -0.1526 -0.0847 -0.3872
  826SOL    HW1 2522   2.508   2.918   2.700  1.6488  1.6326 -0.9743
  826SOL    HW2 2523   2.489   2.778   2.623  0.2785  1.1862  0.0388
  827SOL     OW 2524   0.451   1.255   0.286  1.2246  0.3700  0.9720
  827SOL    HW1 2525   0.505   1.320   0.239 -2.6333  0.6236  0.8244
  827SOL    HW2 2526   0.368   1.257   0.231 -0.5080 -2.6411  0.2957
  828SOL     OW 2527   1.020   2.503   0.162  0.2063  0.1513 -0.5313
  828SOL    HW1 2528   0.968   2.552   0.104 -0.1278 -2.4321  0.4775
  828SOL    HW2 2529   1.046   2.419   0.119  1.3462 -0.1636  0.7436
  829SOL     OW 2530   0.429   0.476   2.230  0.2704 -0.2513 -0.1323
  829SOL    HW1 2531   0.355   0.499   2.284 -0.6035 -0.4229  1.1000
  829SOL    HW2 2532   0.446   0.381   2.261 -1.3156  1.4755 -1.6840
  830SOL     OW 2533   1.723   1.997   0.562 -0.1155 -0.3847 -0.0914
  830SOL    HW1 2534   1.710   2.016   0.471  0.8762  0.3589  2.4395
  830SOL    HW2 2535   1.638   1.977   0.595 -0.3588 -0.0386  1.8229
  831SOL     OW 2536   0.933   2.882   1.606  0.6509 -0.3428  0.4627
  831SOL    HW1 2537   1.000   2.844   1.671  1.7335  1.2525 -0.2364
  831SOL    HW2 2538   0.846   2.864   1.650  0.6253  2.0306 -1.6161
  832SOL     OW 2539   0.283   2.536   2.953  0.4501 -0.0313 -0.0647
  832SOL    HW1 2540   0.334   2.605   3.002 -1.4281  2.1196  1.2135
  832SOL    HW2 2541   0.284   2.474   3.031 -0.4769  4.3600  1.1639
  833SOL     OW 2542   0.152   2.665   1.509 -0.0827  1.0792  0.3795
  833SOL    HW1 2543   0.168   2.606   1.436  0.1124  0.2429  1.3336
  833SOL    HW2 2544   0.084   2.614   1.564  0.3580 -1.8032  0.2955
  834SOL     OW 2545   0.771   0.604   0.824 -0.2935  0.1112 -0.1771
  834SOL    HW1 2546   0.849   0.623   0.764 -0.5820 -1.0070 -1.8343
  834SOL    HW2 2547   0.774   0.506   0.832  1.5834  0.6514 -1.9876
  835SOL     OW 2548   1.416   1.619   0.843  0.1560 -0.0268  0.0013
  835SOL    HW1 2549   1.366   1.552   0.881  1.3145  1.6695  1.5290
  835SOL    HW2 2550   1.483   1.624   0.911  1.1247  0.2747 -1.4174
  836SOL     OW 2551   1.214   1.277   0.261 -0.3705 -0.4992  0.4581
  836SOL    HW1 2552   1.206   1.362   0.314 -2.5463 -0.9244 -0.2287
  836SOL    HW2 2553   1.301   1.274   0.229 -1.8847  2.0649 -1.2739
  837SOL     OW 2554   0.081   0.091   0.518 -0.3695 -0.0203 -0.5753
  837SOL    HW1 2555   0.067   0.086   0.616 -2.7328 -1.2847 -0.8361
  837SOL    HW2 2556   0.070   0.189   0.506  1.7183 -0.6741  1.1894
  838SOL     OW 2557   0.111   1.175   0.605 -0.1121  0.2825 -0.3432
  838SOL    HW1 2558   0.151   1.087   0.582 -2.0971 -0.9148 -0.6620
  838SOL    HW2 2559   0.093   1.207   0.513 -1.1342  0.8165  1.6386
  839SOL     OW 2560   0.082   2.622   2.820 -0.0114 -0.3254  0.5896
  839SOL    HW1 2561   0.157   2.582   2.865  0.4931 -0.9017  0.5290
  839SOL    HW2 2562   0.108   2.621   2.725 -0.5187  1.7114 -1.3338
  840SOL     OW 2563   0.079   2.404   0.794 -0.0207  0.3590 -0.1001
  840SOL    HW1 2564   0.115   2.436   0.879 -1.5936 -0.1784 -0.1252
  840SOL    HW2 2565   0.076   2.485   0.735  1.5970  0.8702 -0.3840
  841SOL     OW 2566   0.318   1.330   0.994  0.5816 -0.5144 -0.5721
  841SOL    HW1 2567   0.359   1.337   0.904 -0.6334  0.4675  0.5290
  841SOL    HW2 2568   0.392   1.290   1.048 -2.6292  0.4744 -0.3370
  842SOL     OW 2569   0.071   0.989   0.841 -0.3081  0.9205 -0.1619
  842SOL    HW1 2570   0.003   0.935   0.797 -1.2296  1.4797  0.0056
  842SOL    HW2 2571   0.100   1.043   0.764 -2.3404  1.4386  2.2193
  843SOL     OW 2572   2.510   2.614   1.446  0.0530 -0.1465  0.1495
  843SOL    HW1 2573   2.491   2.697   1.491  0.7619  0.5785 -1.7543
  843SOL    HW2 2574   2.588   2.583   1.496  0.3308  0.2401 -0.3751
  844SOL     OW 2575   1.000   1.415   2.122  0.9123 -0.2007 -0.7117
  844SOL    HW1 2576   0.916   1.442   2.081 -0.2989  3.1678 -0.7361
  844SOL    HW2 2577   1.003   1.325   2.085  1.1814 -0.0316  3.2057
  845SOL     OW 2578   1.108   1.282   2.786 -0.8024  0.0019  0.1177
  845SOL    HW1 2579   1.019   1.275   2.819 -1.5508  3.2364 -0.0989
  845SOL    HW2 2580   1.151   1.325   2.861 -0.8523  2.2368  0.1092
  846SOL     OW 2581   0.239   1.159   1.553  0.1818  0.0584 -0.5118
  846SOL    HW1 2582   0.204   1.084   1.614  0.1037  1.2065 -0.7972
  846SOL    HW2 2583   0.175   1.149   1.477 -1.5523  2.9621  0.0532
  847SOL     OW 2584   1.729   0.770   1.692 -0.4000 -0.5148 -0.1051
  847SOL    HW1 2585   1.746   0.750   1.786 -1.8381 -0.8562  2.1377
  847SOL    HW2 2586   1.736   0.680   1.655 -0.0917  0.6685  1.1531
  848SOL     OW 2587   1.170   0.913   1.598  0.9553 -0.0903 -0.2977
  848SOL    HW1 2588   1.202   0.869   1.517  0.1838 -3.6681 -0.7818
  848SOL    HW2 2589   1.243   0.890   1.656 -1.6566 -0.5368 -0.2213
  849SOL     OW 2590   0.119   1.641   0.760  0.1963 -0.3815  0.2283
  849SOL    HW1 2591   0.061   1.591   0.821  3.9980 -2.7621 -1.0187
  849SOL    HW2 2592   0.062   1.641   0.683  1.3682  1.4417  2.4011
  850SOL     OW 2593   1.570   1.061   1.519 -0.2341 -0.2462  0.1135
  850SOL    HW1 2594   1.662   1.042   1.535 -0.9989  1.9454 -0.9755
  850SOL    HW2 2595   1.582   1.138   1.462  1.8627 -0.7227  2.1669
  851SOL     OW 2596   0.317   2.044   1.454 -0.0214 -0.1343 -0.0772
  851SOL    HW1 2597   0.225   2.025   1.418 -0.1837 -0.1281  0.0017
  851SOL    HW2 2598   0.306   1.994   1.542 -1.1970 -1.5676 -0.6643
  852SOL     OW 2599   0.520   2.625   2.821 -0.7813 -0.4046  0.0137
  852SOL    HW1 2600   0.430   2.622   2.857 -0.3402 -2.2395  0.9575
  852SOL    HW2 2601   0.524   2.716   2.786  0.5170 -1.7504 -0.0635
  853SOL     OW 2602   2.684   2.756   0.483  0.9947  0.0271  0.1749
  853SOL    HW1 2603   2.656   2.848   0.493  2.0314  1.1400 -0.6889
  853SOL    HW2 2604   2.746   2.770   0.409  0.8740 -1.1969 -0.7309
  854SOL     OW 2605   0.433   2.873   1.300  0.0443 -0.6479 -0.2449
  854SOL    HW1 2606   0.515   2.894   1.345 -0.1293 -0.6632  1.2193
  854SOL    HW2 2607   0.369   2.888   1.367 -0.8106 -1.8897  0.4691
  855SOL     OW 2608   0.743   0.349   0.867 -0.1613  0.4208  0.2337
  855SOL    HW1 2609   0.799   0.277   0.893 -0.9116 -2.1936 -2.8036
  855SOL    HW2 2610   0.656   0.314   0.873  0.9449 -4.3497  4.5351
  856SOL     OW 2611   0.967   0.268   1.122  0.1340 -0.1016  0.4374
  856SOL    HW1 2612   0.897   0.257   1.182  0.4887  2.4439  0.2719
  856SOL    HW2 2613   0.993   0.180   1.111 -2.8537  1.3840 -1.2577
  857SOL     OW 2614   0.287   1.736   1.056 -0.4372  0.6448  0.1443
  857SOL    HW1 2615   0.268   1.830   1.057  0.1835 -3.9068 -1.8686
  857SOL    HW2 2616   0.329   1.725   0.969  1.9516  0.1022  1.3079
  858SOL     OW 2617   1.828   2.924   0.513  0.3309  0.6142 -0.0216
  858SOL    HW1 2618   1.859   3.008   0.545  1.0371 -4.5075  0.6440
  858SOL    HW2 2619   1.738   2.946   0.477 -1.0438  3.2713 -1.3802
  859SOL     OW 2620   0.687   1.588   2.631 -0.2264  0.3368 -0.3940
  859SOL    HW1 2621   0.728   1.545   2.553  0.1146 -1.0107 -1.2810
  859SOL    HW2 2622   0.745   1.663   2.645  1.8645  0.4259  0.8016
  860SOL     OW 2623   0.147   2.001   1.089  0.1407  0.0088  0.1804
  860SOL    HW1 2624   0.076   1.999   1.023  0.7647 -1.3523 -3.0040
  860SOL    HW2 2625   0.119   1.954   1.168 -1.1308 -2.4020  0.1831
  861SOL     OW 2626   2.675   1.167   0.178 -0.3513 -0.0564 -0.3790
  861SOL    HW1 2627   2.586   1.200   0.200 -2.1705 -0.3413 -1.0682
  861SOL    HW2 2628   2.720   1.156   0.266  2.0525 -0.2481 -2.5582
  862SOL     OW 2629   2.170   1.959   1.518  0.0187  0.1218 -0.8809
  862SOL    HW1 2630   2.257   1.976   1.477 -0.1559  2.8771 -2.4731
  862SOL    HW2 2631   2.105   1.993   1.453 -0.1691  2.7207 -1.8700
  863SOL     OW 2632   2.474   2.078   1.138 -0.8528 -0.2177 -0.2162
  863SOL    HW1 2633   2.433   2.123   1.211 -1.3585 -1.1177  0.0972
  863SOL    HW2 2634   2.527   2.152   1.103 -0.0184 -0.5269  0.9570
  864SOL     OW 2635   2.899   2.142   2.013 -0.0916 -0.2797  0.7822
  864SOL    HW1 2636   2.923   2.048   2.023 -0.8176  0.1309  0.3959
  864SOL    HW2 2637   2.901   2.148   1.922  0.5188 -1.2514  2.4368
  865CL      CL 2638   0.643   2.559   1.108  0.0848  0.3067  0.3658
   3.00000   3.00000   3.00000
