Protein in water
 2638
    1ACE    CH3    1   1.344   1.494   1.258  0.5542 -0.3714  0.1199
    1ACE   HH31    2   1.370   1.497   1.371 -0.4920  1.3102  1.5642
    1ACE   HH32    3   1.279   1.583   1.267 -0.0190  0.9800  1.9871
    1ACE   HH33    4   1.292   1.401   1.225 -1.6158  2.9256 -2.3586
    1ACE      C    5   1.455   1.531   1.176  0.1631 -0.2438 -0.0962
    1ACE      O    6   1.500   1.445   1.103 -0.0340 -0.4524  0.1725
    2ALA      N    7   1.503   1.651   1.192  0.4244 -0.5396  0.1994
    2ALA     HN    8   1.456   1.715   1.256 -1.6591  0.9063 -0.9113
    2ALA     CA    9   1.621   1.711   1.124  0.0792  0.2219 -0.4916
    2ALA     HA   10   1.652   1.653   1.043 -3.6212  2.4396  1.4218
    2ALA     CB   11   1.582   1.852   1.071  0.4979 -0.2546  0.2350
    2ALA    HB1   12   1.530   1.911   1.148  1.1002 -0.1490  2.0208
    2ALA    HB2   13   1.673   1.912   1.049 -2.3580  0.7639 -0.4788
    2ALA    HB3   14   1.516   1.835   0.978  0.4733 -0.6098  0.3317
    2ALA      C   15   1.741   1.714   1.219  0.0149 -0.4246  0.7950
    2ALA      O   16   1.828   1.794   1.199  0.4371  0.2498 -0.6274
    3ARG      N   17   1.739   1.638   1.332 -0.3689  0.4721 -0.2755
    3ARG     HN   18   1.675   1.560   1.333 -3.6875  0.1932  2.3434
    3ARG     CA   19   1.823   1.651   1.450 -0.0791  0.4701 -0.1921
    3ARG     HA   20   1.884   1.743   1.440  1.6018 -0.9706 -1.5266
    3ARG     CB   21   1.732   1.660   1.579  0.1062  0.3634 -0.2081
    3ARG    HB1   22   1.637   1.719   1.556 -0.4807  0.7015 -1.3421
    3ARG    HB2   23   1.683   1.560   1.593 -0.6565 -0.6508 -3.9102
    3ARG     CG   24   1.797   1.717   1.706  0.0990 -0.1431  0.1573
    3ARG    HG1   25   1.875   1.644   1.729 -0.0892 -0.4973 -1.4789
    3ARG    HG2   26   1.860   1.816   1.677  1.8411  1.0937 -4.0696
    3ARG     CD   27   1.699   1.747   1.817 -0.0275 -0.3804 -0.3434
    3ARG    HD1   28   1.609   1.815   1.792  0.0492 -2.1745  2.0996
    3ARG    HD2   29   1.657   1.645   1.840  2.5142 -1.2199  1.5973
    3ARG     NE   30   1.777   1.799   1.933 -0.1964  0.0819 -0.2228
    3ARG     HE   31   1.877   1.786   1.938  0.7983 -2.9844 -0.4783
    3ARG     CZ   32   1.723   1.863   2.034 -0.0830  0.3959  0.3490
    3ARG    NH1   33   1.598   1.872   2.067  0.6212  0.3249 -0.3331
    3ARG   HH11   34   1.528   1.813   2.016 -0.1582  0.1094  4.0796
    3ARG   HH12   35   1.567   1.926   2.143  0.5689 -2.1225  0.2657
    3ARG    NH2   36   1.812   1.937   2.110 -0.0882  0.3912 -0.8719
    3ARG   HH21   37   1.907   1.948   2.077  2.6470  0.1680 -0.6906
    3ARG   HH22   38   1.767   2.003   2.172 -3.8244 -1.6524 -2.0567
    3ARG      C   39   1.926   1.535   1.456 -0.0075 -0.2071 -0.2609
    3ARG      O   40   1.907   1.425   1.406 -0.0060 -0.4537  0.4114
    4ASN      N   41   2.038   1.553   1.519 -0.6236 -0.0782  0.5975
    4ASN     HN   42   2.049   1.639   1.567 -0.0202  0.3037 -2.1146
    4ASN     CA   43   2.144   1.453   1.517  0.6229  0.6148  0.1358
    4ASN     HA   44   2.118   1.368   1.455  0.5013 -0.4042  2.2895
    4ASN     CB   45   2.273   1.519   1.461  0.0604  0.5968 -0.3082
    4ASN    HB1   46   2.347   1.437   1.452  1.3079 -0.0867 -0.1318
    4ASN    HB2   47   2.308   1.602   1.524  0.1210 -0.7603  0.0647
    4ASN     CG   48   2.255   1.556   1.320 -0.1775 -0.6006 -0.3970
    4ASN    OD1   49   2.250   1.471   1.231 -0.5905  0.3850 -0.8690
    4ASN    ND2   50   2.238   1.685   1.291 -0.7268 -0.5121  0.0330
    4ASN   HD21   51   2.221   1.719   1.196  0.6493 -0.8804  0.4671
    4ASN   HD22   52   2.242   1.747   1.370  1.1735 -0.8504  1.3578
    4ASN      C   53   2.161   1.405   1.658  0.0544  0.4759  0.0867
    4ASN      O   54   2.234   1.304   1.675 -0.4766  0.1941  0.1269
    5CT3      N   55   2.104   1.470   1.764  0.3762  0.8054 -0.1278
    5CT3     HN   56   2.045   1.550   1.747  0.8255 -1.1309 -2.4333
    5CT3    CH3   57   2.119   1.415   1.896  0.1114  0.1140  0.4849
    5CT3   HH31   58   2.046   1.332   1.918 -1.7781 -0.4597 -0.7410
    5CT3   HH32   59   2.221   1.370   1.920 -0.3530  0.4143 -1.6312
    5CT3   HH33   60   2.115   1.492   1.973  0.9079  0.4990 -4.9745
    6SOL     OW   61   0.891   2.443   0.198 -0.3032 -0.0427  0.5726
    6SOL    HW1   62   0.823   2.383   0.231  0.3631  0.8722  0.7979
    6SOL    HW2   63   0.857   2.464   0.115  0.9138 -2.4702  4.4412
    7SOL     OW   64   1.853   0.281   0.626  0.2184  0.1575  0.1744
    7SOL    HW1   65   1.927   0.253   0.572 -0.5166 -1.4007 -0.4957
    7SOL    HW2   66   1.795   0.314   0.558 -0.9700  0.9741 -0.2781
    8SOL     OW   67   0.034   0.453   1.989  0.2419  0.6889  0.2709
    8SOL    HW1   68   0.076   0.387   2.053  1.9070 -0.1204  2.5584
    8SOL    HW2   69   0.017   0.534   2.038  0.7377 -0.5492 -0.1111
    9SOL     OW   70   2.604   2.424   0.935 -0.9922 -0.6742 -0.1684
    9SOL    HW1   71   2.516   2.425   0.973 -0.0612 -0.4958 -0.6507
    9SOL    HW2   72   2.583   2.416   0.837 -1.7881  1.1183 -1.5296
   10SOL     OW   73   1.569   1.213   2.437 -0.0889  0.4042 -0.6031
   10SOL    HW1   74   1.589   1.291   2.489 -0.6877 -2.9810 -2.4641
   10SOL    HW2   75   1.498   1.256   2.381  1.2099  0.3432  0.6076
   11SOL     OW   76   0.718   0.257   1.068  0.1230  0.3721  0.2375
   11SOL    HW1   77   0.745   0.339   1.023 -0.5540  0.1216  2.5173
   11SOL    HW2   78   0.803   0.223   1.102 -1.0216  1.6168  0.2204
   12SOL     OW   79   2.396   2.457   1.108 -0.0558 -0.8956 -0.2136
   12SOL    HW1   80   2.363   2.457   1.201  2.0313  0.1232 -1.2697
   12SOL    HW2   81   2.372   2.554   1.083 -0.4903  2.6555  0.2068
   13SOL     OW   82   2.821   0.765   0.823 -0.2452  0.2619 -0.1449
   13SOL    HW1   83   2.880   0.714   0.884  1.8653  0.2919  0.2479
   13SOL    HW2   84   2.886   0.813   0.773  1.3925 -3.0570  0.0710
   14SOL     OW   85   1.447   0.027   1.036  0.2380 -0.0614 -0.2135
   14SOL    HW1   86   1.360  -0.008   1.065  1.6842 -1.3495 -0.8248
   14SOL    HW2   87   1.435   0.011   0.947  0.9068  1.6344  1.0854
   15SOL     OW   88   1.951   2.501   2.955 -0.0269  0.4638 -0.5322
   15SOL    HW1   89   1.902   2.592   2.967  1.7537  1.2345  0.3456
   15SOL    HW2   90   1.964   2.490   2.860 -1.8900 -0.4084 -1.3283
   16SOL     OW   91   0.684   1.648   0.342  0.6709  0.8484 -0.5928
   16SOL    HW1   92   0.774   1.649   0.332  0.0066  2.1968  1.7902
   16SOL    HW2   93   0.675   1.608   0.434  1.9984 -0.9896  0.0014
   17SOL     OW   94   0.482   1.324   1.122  0.7827  0.4995  0.2692
   17SOL    HW1   95   0.411   1.262   1.124  1.8620 -0.2489 -0.1386
   17SOL    HW2   96   0.521   1.293   1.209 -0.4767  0.1486  0.9098
   18SOL     OW   97   1.191   1.465   0.117 -0.2026  0.4073  0.6475
   18SOL    HW1   98   1.246   1.406   0.168  0.1983 -1.1612  1.3931
   18SOL    HW2   99   1.190   1.449   0.021 -1.3368 -2.1326  2.0865
   19SOL     OW  100   1.414   0.181   1.541  0.5598 -0.5522  0.0462
   19SOL    HW1  101   1.410   0.168   1.447  0.0162 -3.2474  2.0402
   19SOL    HW2  102   1.383   0.096   1.572  3.6862  0.6198 -4.2348
   20SOL     OW  103   0.652   2.966   1.780  0.4603 -0.0478 -0.0411
   20SOL    HW1  104   0.573   3.008   1.736  0.2902  1.7430 -1.2091
   20SOL    HW2  105   0.616   2.886   1.820 -0.8053 -2.9329 -0.5656
   21SOL     OW  106   2.140   2.984   2.594 -0.2640  0.0964  0.1524
   21SOL    HW1  107   2.085   2.970   2.676  1.4672 -2.0129  0.8413
   21SOL    HW2  108   2.191   2.902   2.592  1.2760  1.8082 -1.4012
   22SOL     OW  109   2.752   2.513   1.729  0.1375 -0.2711  0.2294
   22SOL    HW1  110   2.849   2.507   1.689  0.4011  0.5209  1.6637
   22SOL    HW2  111   2.761   2.593   1.793 -0.9609  0.7275  1.2970
   23SOL     OW  112   0.750   2.329   2.560  0.0236 -0.2826  0.4392
   23SOL    HW1  113   0.739   2.428   2.539  0.0425  0.5037 -1.8189
   23SOL    HW2  114   0.830   2.334   2.616  0.5577  0.6005 -2.9190
   24SOL     OW  115   2.956   1.476   0.608  0.1268  0.7233 -0.5088
   24SOL    HW1  116   3.013   1.403   0.570  0.8862  1.9552 -0.1553
   24SOL    HW2  117   2.944   1.530   0.533  0.8426  1.9814 -1.3294
   25SOL     OW  118   1.958   2.189   2.367 -0.2462  0.4920  0.4483
   25SOL    HW1  119   1.939   2.277   2.403 -0.7472  2.0265 -0.7973
   25SOL    HW2  120   1.912   2.201   2.284  1.2782  0.4346 -1.1267
   26SOL     OW  121   2.502   0.884   2.544  0.0918 -0.4739 -0.2297
   26SOL    HW1  122   2.482   0.878   2.449  2.7229  3.0493  1.9831
   26SOL    HW2  123   2.493   0.792   2.573  2.9845  1.4996 -1.6900
   27SOL     OW  124   2.008   0.550   0.188  0.1353  0.0175  0.0363
   27SOL    HW1  125   2.006   0.638   0.164 -2.1800  2.2054  2.1297
   27SOL    HW2  126   1.942   0.509   0.128 -1.1568 -2.1137  0.2526
   28SOL     OW  127   0.473   1.013   0.546 -0.4899 -0.0129  0.0093
   28SOL    HW1  128   0.388   1.048   0.509 -2.0283  2.4258  2.2897
   28SOL    HW2  129   0.478   1.057   0.636 -1.5322 -2.0643 -1.4263
   29SOL     OW  130   1.113   0.092   0.573 -0.3317  0.2472  0.8869
   29SOL    HW1  131   1.072   0.120   0.654  0.4309  1.0538 -1.0508
   29SOL    HW2  132   1.060   0.139   0.512  1.2075  1.6508 -1.6251
   30SOL     OW  133   1.831   1.543   0.280 -0.2932  0.4132 -0.3516
   30SOL    HW1  134   1.765   1.617   0.272 -1.2177 -1.1413  2.1565
   30SOL    HW2  135   1.859   1.559   0.373 -0.4393  0.2873 -0.2654
   31SOL     OW  136   0.726   1.013   2.593  0.0302 -0.0098  0.1660
   31SOL    HW1  137   0.677   1.092   2.626 -0.9771 -0.9436 -1.5776
   31SOL    HW2  138   0.654   0.951   2.570 -0.5272  0.1872 -0.0370
   32SOL     OW  139   1.670   1.376   0.888  0.4680  0.0811  0.3500
   32SOL    HW1  140   1.593   1.408   0.940 -0.6546 -2.6995 -2.7605
   32SOL    HW2  141   1.625   1.352   0.805 -2.0939  0.0255  2.8771
   33SOL     OW  142   0.594   0.652   0.029  0.4271 -0.1710 -0.2168
   33SOL    HW1  143   0.557   0.677  -0.057  0.1672 -1.3300 -1.8119
   33SOL    HW2  144   0.635   0.566   0.002  1.1708 -0.5076  0.7669
   34SOL     OW  145   0.809   0.861   0.748 -0.1412  0.4255 -0.4738
   34SOL    HW1  146   0.786   0.842   0.658  0.2899 -0.5835  4.1057
   34SOL    HW2  147   0.806   0.958   0.744  1.6380 -0.0038  1.8088
   35SOL     OW  148   2.231   1.407   0.706 -0.5204 -0.2781 -0.6554
   35SOL    HW1  149   2.201   1.420   0.799  1.3430 -0.9913  0.9632
   35SOL    HW2  150   2.325   1.441   0.706 -0.4211  0.4162  0.6236
   36SOL     OW  151   0.028   2.007   2.755  0.3536 -0.4123 -0.0076
   36SOL    HW1  152  -0.021   1.925   2.788  0.7525  0.9357 -0.3017
   36SOL    HW2  153  -0.026   2.075   2.802  0.5130 -0.5961 -0.6420
   37SOL     OW  154   1.843   2.221   1.836  0.1488 -0.0328  0.1493
   37SOL    HW1  155   1.747   2.247   1.850  0.5239 -0.0547 -1.8498
   37SOL    HW2  156   1.844   2.176   1.751  0.9067 -1.4974 -0.3270
   38SOL     OW  157   2.127   2.646   2.332 -0.3751  0.8897 -0.1445
   38SOL    HW1  158   2.211   2.643   2.281  0.0807 -1.6446  1.6281
   38SOL    HW2  159   2.162   2.673   2.411 -1.2293 -1.8113  0.7348
   39SOL     OW  160   1.598   1.974   2.751  0.0287 -0.0719 -0.2014
   39SOL    HW1  161   1.648   1.907   2.703 -0.9083  1.6322 -1.7595
   39SOL    HW2  162   1.508   1.953   2.718 -0.0607  0.9092 -2.5536
   40SOL     OW  163   0.942   2.327   1.676 -0.2106  0.2872  0.0014
   40SOL    HW1  164   0.859   2.368   1.706 -3.1212 -0.6154 -1.1175
   40SOL    HW2  165   0.949   2.360   1.575 -2.1527  1.5316 -1.6712
   41SOL     OW  166   1.979   1.517   0.064 -0.1436 -0.1803 -0.1881
   41SOL    HW1  167   1.919   1.452   0.025 -0.7054 -0.8563  0.1500
   41SOL    HW2  168   1.936   1.542   0.146 -2.1568  1.1759 -2.9048
   42SOL     OW  169   2.693   1.523   1.109 -0.0033  0.0349  0.0990
   42SOL    HW1  170   2.661   1.550   1.020 -0.1735 -1.8909 -0.3925
   42SOL    HW2  171   2.618   1.470   1.137  1.1959 -2.7386 -3.5865
   43SOL     OW  172   2.856   0.550   2.557 -0.1336  0.4222 -0.7420
   43SOL    HW1  173   2.939   0.525   2.510 -0.3058  1.7450  0.2226
   43SOL    HW2  174   2.787   0.561   2.488  2.8308 -2.0113 -0.8086
   44SOL     OW  175   0.225   0.219   1.007 -0.5146 -0.2651  0.1870
   44SOL    HW1  176   0.271   0.256   0.931 -0.9507  1.4184  1.7667
   44SOL    HW2  177   0.133   0.234   0.991  2.4865  1.9092 -2.3444
   45SOL     OW  178   2.205   1.761   1.685 -0.0082  0.0955 -0.8612
   45SOL    HW1  179   2.304   1.752   1.692 -1.2452 -0.8359 -0.6219
   45SOL    HW2  180   2.198   1.838   1.627 -1.5844 -0.5280  0.2668
   46SOL     OW  181   0.934   2.858   1.326 -0.6014 -0.1456 -0.4788
   46SOL    HW1  182   0.886   2.932   1.371  1.0573  1.9413  0.1841
   46SOL    HW2  183   0.868   2.788   1.321 -3.2062  0.8242 -1.5119
   47SOL     OW  184   1.672   2.466   1.231  0.7142  0.2473  0.1162
   47SOL    HW1  185   1.611   2.454   1.157  0.5296 -0.1041 -0.7990
   47SOL    HW2  186   1.615   2.502   1.300 -3.1226  0.0363 -1.6360
   48SOL     OW  187   0.089   1.868   1.131 -0.0178  0.7670  0.9470
   48SOL    HW1  188   0.060   1.961   1.091  0.1275  0.5590  0.2346
   48SOL    HW2  189   0.008   1.816   1.106 -1.5108  0.8966 -2.9533
   49SOL     OW  190   1.868   0.250   1.265 -0.6270  0.3630 -0.4936
   49SOL    HW1  191   1.831   0.165   1.259  2.3709 -1.4632  2.3692
   49SOL    HW2  192   1.793   0.309   1.247 -0.8926 -0.0774  0.0948
   50SOL     OW  193   1.155   0.278   1.354  0.7207  0.0258  0.0092
   50SOL    HW1  194   1.245   0.248   1.328  2.2099  0.4258  1.3154
   50SOL    HW2  195   1.136   0.216   1.423  2.6673 -0.9470  1.3709
   51SOL     OW  196   2.946   0.740   1.580  0.2080  0.1681  0.3826
   51SOL    HW1  197   2.928   0.690   1.500  0.8214 -1.4422 -1.1124
   51SOL    HW2  198   2.994   0.667   1.631 -0.1713 -1.1170  0.3891
   52SOL     OW  199   0.391   0.336   2.327  0.0453 -0.3477  0.4962
   52SOL    HW1  200   0.442   0.278   2.271  1.6828  2.3436 -3.0798
   52SOL    HW2  201   0.305   0.329   2.282  0.1669 -1.0286 -0.1586
   53SOL     OW  202   1.695   0.429   0.430 -0.0960  0.1256  0.0712
   53SOL    HW1  203   1.609   0.456   0.389 -1.1739 -1.0428 -0.4332
   53SOL    HW2  204   1.711   0.503   0.494  1.2752  2.0211  1.4631
   54SOL     OW  205   0.475   2.667   1.738 -0.0879  0.6753  0.0898
   54SOL    HW1  206   0.391   2.716   1.738  0.2476 -1.1778 -2.2973
   54SOL    HW2  207   0.486   2.631   1.828 -0.9526  0.9391  1.5801
   55SOL     OW  208   0.146   0.871   0.352 -0.3495  0.0057  0.1110
   55SOL    HW1  209   0.106   0.788   0.320  1.4511  1.7599  2.8030
   55SOL    HW2  210   0.237   0.831   0.375 -0.1890  0.8214 -0.4626
   56SOL     OW  211   1.597   2.564   0.957  0.4955 -0.5616  0.2277
   56SOL    HW1  212   1.659   2.488   0.939 -0.1750  0.8995  1.6061
   56SOL    HW2  213   1.650   2.634   0.919 -1.5283 -4.5907  1.5033
   57SOL     OW  214   1.631   2.587   2.848 -0.0166 -0.9490 -0.2672
   57SOL    HW1  215   1.591   2.530   2.918  0.3853  0.0420  1.3903
   57SOL    HW2  216   1.641   2.522   2.775  0.6014  0.9452  1.0577
   58SOL     OW  217   1.307   0.629   1.323  0.2142 -0.5429 -0.2583
   58SOL    HW1  218   1.380   0.636   1.263 -0.7568  0.2150  1.2937
   58SOL    HW2  219   1.357   0.657   1.403 -2.1200  0.1814 -1.4213
   59SOL     OW  220   1.152   0.816   0.676  0.4491 -0.0031  0.5591
   59SOL    HW1  221   1.241   0.778   0.684  0.0891  1.7138  1.4458
   59SOL    HW2  222   1.099   0.735   0.698 -0.4469  0.9614  4.2849
   60SOL     OW  223   0.480   1.869   2.932  0.2626  0.2661  0.2927
   60SOL    HW1  224   0.431   1.928   2.994 -0.6697 -3.4504 -0.7381
   60SOL    HW2  225   0.519   1.806   2.996  0.8072  1.6025 -1.2845
   61SOL     OW  226   0.184   1.996   0.737 -0.4867  0.1610  0.6022
   61SOL    HW1  227   0.272   1.987   0.775 -2.2860 -0.9006 -0.5153
   61SOL    HW2  228   0.132   1.921   0.766  0.5985 -1.5413  2.0340
   62SOL     OW  229   2.160   0.121   1.981 -0.0614 -0.3965 -0.1920
   62SOL    HW1  230   2.143   0.132   2.076  0.0868  0.6758  0.8738
   62SOL    HW2  231   2.075   0.110   1.943 -1.1710  3.2031  1.7029
   63SOL     OW  232   0.937   2.370   2.775  0.2619 -0.4879  0.1763
   63SOL    HW1  233   0.984   2.297   2.828  0.1455  0.9136 -2.7215
   63SOL    HW2  234   1.003   2.441   2.785  0.5959  1.3231 -1.0776
   64SOL     OW  235   2.459   1.591   2.658 -0.1062 -0.4646 -0.3006
   64SOL    HW1  236   2.530   1.582   2.725  1.3679  0.3459 -1.1257
   64SOL    HW2  237   2.408   1.677   2.679 -0.2779  1.3084  0.6234
   65SOL     OW  238   2.867   0.644   2.135 -0.6460 -0.8572 -0.4299
   65SOL    HW1  239   2.819   0.641   2.214 -2.6469  1.2921  2.2518
   65SOL    HW2  240   2.788   0.618   2.082  0.5581  2.4742 -0.8182
   66SOL     OW  241   2.705   2.042   0.126 -0.1229 -0.4906  0.0828
   66SOL    HW1  242   2.751   1.982   0.184 -1.6631  1.5092  0.0783
   66SOL    HW2  243   2.611   2.006   0.132 -1.9084  0.6109 -0.9350
   67SOL     OW  244   2.383   0.383   0.771  0.1371 -0.3696 -0.0786
   67SOL    HW1  245   2.346   0.400   0.861 -2.7369  0.7726  0.0347
   67SOL    HW2  246   2.428   0.299   0.788  0.2244 -0.6530  1.5214
   68SOL     OW  247   2.052   1.590   2.695  0.0296 -0.1696  0.1917
   68SOL    HW1  248   2.101   1.674   2.721 -1.2422 -0.9142 -0.4860
   68SOL    HW2  249   2.057   1.592   2.600 -3.5620 -1.0810 -1.0746
   69SOL     OW  250   0.270   1.648   2.945 -0.1073 -0.0370  0.2292
   69SOL    HW1  251   0.327   1.724   2.924  1.5488 -1.7999  2.0575
   69SOL    HW2  252   0.285   1.587   2.871  0.1552 -2.4805 -0.4468
   70SOL     OW  253   2.167   1.071   1.794 -0.1897  0.1511  0.4559
   70SOL    HW1  254   2.239   1.018   1.757 -0.2583  0.2442  0.8000
   70SOL    HW2  255   2.207   1.164   1.766 -0.0684 -0.3798 -0.7219
   71SOL     OW  256   2.065   2.270   0.360  0.3263  0.1742  0.6435
   71SOL    HW1  257   2.149   2.248   0.324 -0.8581  1.6157 -1.6375
   71SOL    HW2  258   2.058   2.351   0.310  1.0596 -1.5622 -1.2873
   72SOL     OW  259   2.727   0.268   1.878  0.6100 -0.6543 -0.5390
   72SOL    HW1  260   2.690   0.205   1.946  0.0872  1.5229  0.6443
   72SOL    HW2  261   2.640   0.287   1.832  1.0937  2.5169 -1.2291
   73SOL     OW  262   2.446   2.014   2.087 -0.3187  0.0298  0.4061
   73SOL    HW1  263   2.429   2.082   2.022  1.4408 -0.1246  0.6246
   73SOL    HW2  264   2.537   2.030   2.106  0.9239  1.2418 -0.5802
   74SOL     OW  265   2.882   2.776   2.304 -0.4165 -0.4718 -0.6216
   74SOL    HW1  266   2.829   2.833   2.358 -0.6386 -0.1241 -1.3686
   74SOL    HW2  267   2.961   2.766   2.360 -0.9013 -1.0111  0.1092
   75SOL     OW  268   2.726   0.310   1.398  0.3814  0.4010 -0.1219
   75SOL    HW1  269   2.653   0.321   1.335  0.3372  0.8923  1.4144
   75SOL    HW2  270   2.775   0.393   1.384 -0.9606 -1.3216 -0.6824
   76SOL     OW  271   0.607   0.853   1.943 -0.1558 -0.0282 -0.1601
   76SOL    HW1  272   0.691   0.845   1.906 -0.0892  1.8728 -2.9305
   76SOL    HW2  273   0.629   0.853   2.033 -0.8075 -1.5933  1.3438
   77SOL     OW  274   0.339   0.299   1.420 -0.1499  0.5241  0.2397
   77SOL    HW1  275   0.394   0.349   1.354  1.5504  2.2223  2.3427
   77SOL    HW2  276   0.317   0.212   1.378 -2.1689  0.7333 -1.9451
   78SOL     OW  277   1.115   2.428   2.421  0.3441  0.0157  0.0150
   78SOL    HW1  278   1.154   2.349   2.381 -3.4660 -1.0325 -2.0037
   78SOL    HW2  279   1.141   2.422   2.514  0.0154  2.6062 -0.9440
   79SOL     OW  280   1.050   2.052   0.694  0.2395 -0.2073  0.2077
   79SOL    HW1  281   0.993   2.133   0.686  3.0635  0.8419  0.6146
   79SOL    HW2  282   0.986   1.994   0.657  1.2822 -0.4076  0.6392
   80SOL     OW  283   1.924   0.915   2.133 -0.0709 -0.3207  0.3260
   80SOL    HW1  284   1.969   0.915   2.217 -0.5038 -0.3996  2.0734
   80SOL    HW2  285   1.981   0.971   2.083 -1.4485 -1.8799  1.2905
   81SOL     OW  286   1.001   2.809   0.641  0.1028 -0.2522 -0.1564
   81SOL    HW1  287   1.084   2.839   0.607 -0.5337  1.1660 -1.9956
   81SOL    HW2  288   0.961   2.782   0.558 -1.0154 -1.4216  1.4267
   82SOL     OW  289   2.617   0.744   0.481 -0.2022 -0.2245 -0.3012
   82SOL    HW1  290   2.597   0.665   0.533  2.2481  0.5174  1.1077
   82SOL    HW2  291   2.698   0.715   0.440  2.8836  3.1438 -0.2680
   83SOL     OW  292   2.561   2.914   1.743 -0.0844 -0.7065  0.1034
   83SOL    HW1  293   2.555   2.991   1.692 -0.9196 -0.2774  0.7321
   83SOL    HW2  294   2.474   2.903   1.787  1.8274  0.1723 -1.1509
   84SOL     OW  295   1.463   0.570   1.970 -0.4158 -1.0359  0.0965
   84SOL    HW1  296   1.493   0.596   2.062  0.4343  3.7107  0.7896
   84SOL    HW2  297   1.485   0.476   1.956 -2.1083  0.3414 -2.2124
   85SOL     OW  298   1.529   2.000   1.411 -0.1784 -0.1002 -1.0245
   85SOL    HW1  299   1.532   2.069   1.344  1.3400 -0.4563  1.2356
   85SOL    HW2  300   1.583   2.045   1.482  0.1229 -0.8488  2.9940
   86SOL     OW  301   1.199   0.255   0.261 -0.3452  0.2732 -0.3435
   86SOL    HW1  302   1.210   0.337   0.312  3.5022  2.6106  0.6265
   86SOL    HW2  303   1.138   0.284   0.192  1.3556  1.3548 -2.2293
   87SOL     OW  304   2.441   1.299   2.029 -0.1329  0.5708 -0.0121
   87SOL    HW1  305   2.396   1.370   2.071  1.0774  0.0109 -0.9939
   87SOL    HW2  306   2.502   1.340   1.966 -3.5283  0.7190 -0.8740
   88SOL     OW  307   2.827   1.254   1.598  0.2337 -0.0603  0.1347
   88SOL    HW1  308   2.791   1.289   1.514  1.3232  0.7338 -3.6161
   88SOL    HW2  309   2.826   1.159   1.566 -2.4956  0.0178  1.2048
   89SOL     OW  310   2.727   2.100   2.096 -0.0426  0.1671 -0.6966
   89SOL    HW1  311   2.801   2.144   2.050 -0.3059  1.2663 -0.5825
   89SOL    HW2  312   2.735   2.136   2.184  0.5591  0.3796  1.5190
   90SOL     OW  313   2.851   1.088   0.047 -0.8283  0.1952  0.2677
   90SOL    HW1  314   2.758   1.059   0.020 -0.6345 -0.0355 -1.1619
   90SOL    HW2  315   2.834   1.183   0.078 -0.1889  1.3004  3.0039
   91SOL     OW  316   1.657   0.318   1.576  0.2182 -0.1919  0.6267
   91SOL    HW1  317   1.580   0.266   1.547  0.4004 -0.0456  0.1731
   91SOL    HW2  318   1.636   0.323   1.671 -1.0023 -1.1190 -3.6768
   92SOL     OW  319   2.882   2.757   1.209  0.1281 -0.4491 -0.4693
   92SOL    HW1  320   2.948   2.708   1.158  0.9798  1.4217 -1.7036
   92SOL    HW2  321   2.798   2.729   1.172 -1.5064  0.4432  0.3591
   93SOL     OW  322   0.400   2.288   0.316  0.1733 -0.5774  0.4208
   93SOL    HW1  323   0.483   2.311   0.363  1.0686  0.4981  0.2128
   93SOL    HW2  324   0.347   2.242   0.383 -0.9054 -0.4587  0.7471
   94SOL     OW  325   0.487   2.240   0.612  0.2826  0.1126 -0.1118
   94SOL    HW1  326   0.504   2.314   0.669  0.3068  1.6603  1.3923
   94SOL    HW2  327   0.552   2.181   0.648  2.0320  0.0221  3.0802
   95SOL     OW  328   1.944   1.277   0.809  0.5136  0.0259 -0.1314
   95SOL    HW1  329   1.855   1.304   0.833  1.2640  1.2103 -0.3773
   95SOL    HW2  330   1.998   1.345   0.847 -2.5186 -2.5936 -3.9836
   96SOL     OW  331   0.881   0.191   2.086  1.0803  0.0513 -0.2964
   96SOL    HW1  332   0.861   0.158   1.994  1.2263 -3.4531  3.3795
   96SOL    HW2  333   0.975   0.213   2.082 -2.7112 -1.1235 -3.4083
   97SOL     OW  334   1.929   2.553   0.685 -0.3825  0.0592  0.0921
   97SOL    HW1  335   1.891   2.472   0.723  0.0302  0.8256 -2.5528
   97SOL    HW2  336   1.860   2.619   0.720  1.0715  2.1463 -2.3972
   98SOL     OW  337   2.126   3.000   0.101  0.0765 -0.4483  1.2446
   98SOL    HW1  338   2.106   2.954   0.189  0.6610  0.1176  2.2499
   98SOL    HW2  339   2.033   3.024   0.075  1.7519 -0.2135  0.7324
   99SOL     OW  340   2.770   0.046   0.405  0.3924 -0.0129  0.1898
   99SOL    HW1  341   2.816   0.097   0.473  1.6725  1.5160 -2.6631
   99SOL    HW2  342   2.684   0.034   0.439  1.5910 -0.7556  2.2765
  100SOL     OW  343   1.925   2.507   2.445  0.2992  0.0063 -0.0672
  100SOL    HW1  344   1.838   2.518   2.412  0.2734  0.6533 -2.7171
  100SOL    HW2  345   1.986   2.573   2.395 -0.6973  1.3148 -0.8854
  101SOL     OW  346   2.904   0.619   1.334 -0.0624 -0.1825  0.4915
  101SOL    HW1  347   2.830   0.620   1.268  3.8886 -1.7192  0.8186
  101SOL    HW2  348   2.969   0.566   1.285 -1.0458 -0.0051 -1.4871
  102SOL     OW  349   1.676   1.230   1.163 -0.6494  0.2634 -0.2022
  102SOL    HW1  350   1.630   1.152   1.129 -0.2229  2.6472 -0.7946
  102SOL    HW2  351   1.613   1.298   1.147  0.7144  0.2659 -1.9297
  103SOL     OW  352   1.772   2.375   0.869  0.6529  0.2498  0.0577
  103SOL    HW1  353   1.713   2.302   0.838 -1.3020 -1.0811  0.8372
  103SOL    HW2  354   1.852   2.322   0.881 -1.5310  1.1650 -1.4850
  104SOL     OW  355   0.742   2.253   0.766 -0.9005  0.6662  0.4294
  104SOL    HW1  356   0.811   2.296   0.820  2.7086  0.7158 -1.6435
  104SOL    HW2  357   0.683   2.221   0.839  1.1598 -0.2564 -1.0845
  105SOL     OW  358   0.900   0.306   0.429  0.6593  0.0677 -0.3353
  105SOL    HW1  359   0.945   0.378   0.481  0.2227 -1.9062 -4.0002
  105SOL    HW2  360   0.853   0.362   0.372 -0.0981 -1.1231  0.0370
  106SOL     OW  361   1.620   1.346   1.434  0.1260 -0.2202 -0.0554
  106SOL    HW1  362   1.649   1.293   1.507 -3.0292  1.5593 -1.6208
  106SOL    HW2  363   1.645   1.279   1.368 -0.7343  0.0461  0.1592
  107SOL     OW  364   0.638   0.666   0.945  0.2040  0.6402  0.3877
  107SOL    HW1  365   0.701   0.649   1.017  0.4388 -0.1930  0.6124
  107SOL    HW2  366   0.699   0.688   0.871  0.8190 -1.6903 -0.9564
  108SOL     OW  367   2.679   0.620   1.167 -0.2944 -0.0660 -0.4926
  108SOL    HW1  368   2.610   0.548   1.184 -2.1686 -1.0189 -1.2231
  108SOL    HW2  369   2.723   0.584   1.092  0.4379  1.8046  1.4746
  109SOL     OW  370   2.742   0.964   1.002 -0.2119  0.0743 -0.3877
  109SOL    HW1  371   2.728   1.024   0.927 -1.9649  0.6645  1.0460
  109SOL    HW2  372   2.781   0.891   0.957 -1.5718 -0.4810 -0.7546
  110SOL     OW  373   0.258   2.164   2.822  0.1886 -0.1900 -0.2587
  110SOL    HW1  374   0.211   2.081   2.787 -0.6787  0.3312 -0.2373
  110SOL    HW2  375   0.212   2.177   2.906  0.3256  1.3553 -1.9127
  111SOL     OW  376   0.921   2.275   0.540 -0.1987  0.5920  0.2006
  111SOL    HW1  377   0.952   2.316   0.618  1.9823  1.1893 -2.5477
  111SOL    HW2  378   0.845   2.332   0.532  1.9011  2.4856  0.0320
  112SOL     OW  379   1.986   0.487   2.022 -0.6713 -0.2893  0.3224
  112SOL    HW1  380   2.054   0.439   1.970 -1.0417  1.9300  1.7664
  112SOL    HW2  381   1.998   0.571   1.977 -3.5497  1.0856 -2.5839
  113SOL     OW  382   1.912   2.808   1.902  0.8607 -0.0716  0.0937
  113SOL    HW1  383   1.932   2.837   1.817 -0.5853  0.4848  4.5777
  113SOL    HW2  384   1.864   2.879   1.949  1.0045  0.1757  0.0073
  114SOL     OW  385   2.930   0.994   0.491  0.2315 -0.3554 -0.3130
  114SOL    HW1  386   2.976   0.935   0.424 -0.3587 -2.1896 -0.2766
  114SOL    HW2  387   2.952   0.951   0.578 -1.9559  1.7251 -0.5405
  115SOL     OW  388   1.134   0.764   1.037  0.0181 -0.0866 -0.3555
  115SOL    HW1  389   1.129   0.851   0.990 -0.0701 -0.5440 -0.3931
  115SOL    HW2  390   1.149   0.782   1.130  0.1439  1.1505 -0.5982
  116SOL     OW  391   1.663   0.950   2.755  0.1163  0.4273  0.4798
  116SOL    HW1  392   1.744   0.962   2.812 -1.5684  0.5590  1.8524
  116SOL    HW2  393   1.695   0.989   2.668  0.6134 -0.1519 -1.5263
  117SOL     OW  394   1.707   2.307   2.212  0.4017  0.4071  0.7071
  117SOL    HW1  395   1.703   2.362   2.131 -0.0963  0.9322 -0.6520
  117SOL    HW2  396   1.630   2.245   2.197  0.1848  2.9455  0.2696
  118SOL     OW  397   0.841   2.688   0.417  0.3202  0.0086 -0.7938
  118SOL    HW1  398   0.767   2.713   0.479  1.1427 -1.5056  0.7466
  118SOL    HW2  399   0.819   2.594   0.426  0.3098 -1.8602 -2.1631
  119SOL     OW  400   1.506   2.811   1.283  0.3570  0.0148 -0.0938
  119SOL    HW1  401   1.492   2.903   1.299 -1.8956  0.7932  2.5210
  119SOL    HW2  402   1.517   2.781   1.373 -0.3050  1.2905  1.7997
  120SOL     OW  403   2.192   0.365   0.199  0.0645  0.4777  0.3799
  120SOL    HW1  404   2.245   0.405   0.129 -0.8324 -0.2966  0.9516
  120SOL    HW2  405   2.110   0.418   0.205 -0.2790 -1.6376  1.6372
  121SOL     OW  406   0.434   0.894   2.254 -0.2748  0.2053 -0.3375
  121SOL    HW1  407   0.360   0.941   2.293 -0.1397 -0.4292  0.0898
  121SOL    HW2  408   0.390   0.839   2.186 -2.5939  1.2005 -0.4289
  122SOL     OW  409   0.490   0.760   1.234  0.0824  0.4187  0.3963
  122SOL    HW1  410   0.539   0.764   1.317 -1.0317 -0.7814  2.1763
  122SOL    HW2  411   0.403   0.795   1.259  1.8824  1.6282 -1.7034
  123SOL     OW  412   1.835   2.616   1.472  0.0710  0.5501  0.1297
  123SOL    HW1  413   1.893   2.613   1.392  1.9811  1.6864  1.9457
  123SOL    HW2  414   1.794   2.700   1.457 -2.1697 -1.6738 -0.5096
  124SOL     OW  415   2.726   0.771   1.759 -0.1135  0.0157 -0.2726
  124SOL    HW1  416   2.745   0.705   1.825  1.7812 -1.4691  0.3347
  124SOL    HW2  417   2.805   0.768   1.708 -3.7687  2.3750  1.9729
  125SOL     OW  418   1.010   1.342   2.298  0.5291 -0.0379  0.0513
  125SOL    HW1  419   0.964   1.313   2.223 -2.0177  2.2437 -1.0488
  125SOL    HW2  420   1.083   1.275   2.298 -0.2317  0.1361  2.3190
  126SOL     OW  421   2.750   2.066   1.109  0.0699 -0.4313 -0.2801
  126SOL    HW1  422   2.689   2.138   1.135  3.2955  0.5170 -3.2100
  126SOL    HW2  423   2.702   1.986   1.141  1.7420  1.3098  1.0517
  127SOL     OW  424   0.713   1.513   2.682 -0.0374 -0.8835  0.5629
  127SOL    HW1  425   0.697   1.605   2.676 -3.3062 -0.9771 -3.3619
  127SOL    HW2  426   0.801   1.516   2.721 -1.8505  2.2246 -1.2027
  128SOL     OW  427   0.796   1.082   0.251 -0.2184 -0.2478  0.3249
  128SOL    HW1  428   0.879   1.069   0.198 -0.2399 -0.8476  1.0750
  128SOL    HW2  429   0.741   1.006   0.223 -2.4613  2.8804  3.1722
  129SOL     OW  430   1.219   2.565   2.013  0.1783 -0.5342 -0.1375
  129SOL    HW1  431   1.206   2.483   1.955  1.1979  0.7064  0.9700
  129SOL    HW2  432   1.148   2.550   2.076  0.1111 -1.0617 -2.1114
  130SOL     OW  433   0.420   0.995   1.832 -1.1254 -0.4797  0.3559
  130SOL    HW1  434   0.470   1.075   1.809 -0.5394 -1.3852  2.6056
  130SOL    HW2  435   0.486   0.954   1.888  1.7087 -0.5006  1.6051
  131SOL     OW  436   1.566   0.694   2.718 -0.0386  0.0841 -0.2363
  131SOL    HW1  437   1.540   0.697   2.626 -0.4340 -0.0265 -0.2822
  131SOL    HW2  438   1.608   0.784   2.734  2.9798  0.7526 -0.6295
  132SOL     OW  439   1.170   1.819   2.045 -0.5558 -0.4325  0.4789
  132SOL    HW1  440   1.137   1.834   2.141  1.6018  0.7217  1.5810
  132SOL    HW2  441   1.085   1.792   2.005  2.0505 -0.2015 -0.3629
  133SOL     OW  442   2.317   1.109   2.291  0.2727  0.0491  0.2084
  133SOL    HW1  443   2.384   1.179   2.315  2.0892 -0.2982  1.4380
  133SOL    HW2  444   2.335   1.084   2.197 -0.0876 -1.7473 -0.7951
  134SOL     OW  445   2.621   1.784   2.388 -0.3900  0.1985  0.3940
  134SOL    HW1  446   2.594   1.695   2.364 -1.3677 -2.4576  2.1339
  134SOL    HW2  447   2.682   1.802   2.310 -0.6974  1.0471  0.6334
  135SOL     OW  448   1.278   2.248   2.312  0.2888  0.5231 -0.5174
  135SOL    HW1  449   1.205   2.190   2.294 -1.5143  0.6736  1.0056
  135SOL    HW2  450   1.321   2.204   2.394 -0.8756  0.1971 -1.0862
  136SOL     OW  451   2.443   2.888   2.243 -0.3690  0.0936 -0.2063
  136SOL    HW1  452   2.421   2.792   2.229 -0.7887 -1.2850 -1.5342
  136SOL    HW2  453   2.358   2.920   2.203 -2.7220 -0.7042 -1.1650
  137SOL     OW  454   0.426   2.894   2.231 -0.0696 -0.1641 -0.2464
  137SOL    HW1  455   0.366   2.920   2.305  1.2140  0.6640  3.4176
  137SOL    HW2  456   0.389   2.806   2.225 -2.4883  1.2066  0.9675
  138SOL     OW  457   1.092   2.665   1.661 -0.1618  0.2368 -0.3981
  138SOL    HW1  458   1.130   2.585   1.632  0.2343  4.1744  2.1822
  138SOL    HW2  459   1.025   2.632   1.719  0.9993 -3.3695 -0.4330
  139SOL     OW  460   1.879   1.484   2.156 -0.3166  0.2671 -0.0144
  139SOL    HW1  461   1.924   1.562   2.199  0.2817  0.9499  2.8351
  139SOL    HW2  462   1.918   1.412   2.210 -0.3352 -0.5102 -1.4537
  140SOL     OW  463   1.246   1.168   2.948 -0.1913  0.7701  0.2796
  140SOL    HW1  464   1.294   1.090   2.914 -0.9085  0.6361 -1.5964
  140SOL    HW2  465   1.322   1.226   2.974  1.3326  0.0545 -2.3926
  141SOL     OW  466   1.774   2.334   1.460  1.0467 -0.1117  0.1424
  141SOL    HW1  467   1.763   2.431   1.492 -1.0835 -1.2449 -0.7773
  141SOL    HW2  468   1.752   2.342   1.363 -0.7629 -2.8866  0.0194
  142SOL     OW  469   1.974   1.929   0.476  0.4853  0.1798  0.6447
  142SOL    HW1  470   2.060   1.881   0.492  0.7457 -2.8951  1.0902
  142SOL    HW2  471   1.992   1.965   0.386  0.1426 -1.6118 -0.8999
  143SOL     OW  472   2.138   2.156   0.600 -0.0544  0.2870  0.3350
  143SOL    HW1  473   2.128   2.062   0.585 -1.2454 -2.4296  0.9713
  143SOL    HW2  474   2.093   2.198   0.523  0.6361  1.8918  0.3769
  144SOL     OW  475   0.631   2.041   1.718 -0.3805 -0.0049  0.3032
  144SOL    HW1  476   0.603   2.130   1.690  0.0204 -0.9380  4.9925
  144SOL    HW2  477   0.727   2.055   1.724 -0.8665 -2.2130  0.0462
  145SOL     OW  478   1.963   0.814   0.186  0.0914 -0.8453 -0.1137
  145SOL    HW1  479   1.986   0.889   0.244 -3.1440 -0.5673 -2.1324
  145SOL    HW2  480   1.872   0.790   0.214  0.2520 -2.6797 -0.6926
  146SOL     OW  481   0.482   2.565   0.689 -0.3264 -0.0914  0.0001
  146SOL    HW1  482   0.424   2.621   0.742  3.5418  0.1242  1.1000
  146SOL    HW2  483   0.553   2.539   0.752  1.8029  0.6759 -0.5316
  147SOL     OW  484   0.955   1.482   2.774  0.3519 -0.0567  0.2298
  147SOL    HW1  485   1.002   1.446   2.696  0.9469 -1.3847 -0.3249
  147SOL    HW2  486   0.987   1.428   2.844 -0.2338  2.0684 -3.4908
  148SOL     OW  487   1.260   0.179   2.746 -0.3401  0.2995  0.0757
  148SOL    HW1  488   1.176   0.221   2.775  2.1249  1.2504  1.1243
  148SOL    HW2  489   1.255   0.187   2.652 -0.9072 -0.7108 -0.2013
  149SOL     OW  490   1.000   1.034   2.501 -0.1619 -0.6564 -0.4460
  149SOL    HW1  491   1.022   1.077   2.588 -1.4064 -2.5659 -1.5860
  149SOL    HW2  492   0.914   1.001   2.525  0.4917 -0.7565  1.4970
  150SOL     OW  493   0.089   0.868   0.709  0.3359  0.0021  0.6347
  150SOL    HW1  494   0.149   0.924   0.768 -0.2684 -1.0381 -1.9162
  150SOL    HW2  495   0.135   0.788   0.693 -0.3604 -0.8403  0.6589
  151SOL     OW  496   0.307   2.258   1.686  0.2299  0.6602  0.0822
  151SOL    HW1  497   0.321   2.245   1.781 -0.8879 -0.3641 -2.1035
  151SOL    HW2  498   0.394   2.277   1.651  1.2426 -1.6288 -4.6609
  152SOL     OW  499   0.884   1.238   1.117 -0.1210  0.8041 -0.0832
  152SOL    HW1  500   0.830   1.287   1.180  1.6265  1.9377  2.1642
  152SOL    HW2  501   0.885   1.156   1.173 -1.8056 -0.8693 -0.6425
  153SOL     OW  502   2.348   1.131   1.155 -0.5795 -0.8263  0.1685
  153SOL    HW1  503   2.340   1.073   1.074 -1.1403  1.2017 -0.5365
  153SOL    HW2  504   2.267   1.112   1.200  1.2720 -2.3210  0.6386
  154SOL     OW  505   1.991   2.531   2.105 -0.1103 -0.8992 -0.4263
  154SOL    HW1  506   1.944   2.596   2.157 -0.6793 -2.1407 -1.0425
  154SOL    HW2  507   1.954   2.450   2.135  1.6854 -0.2679  0.7715
  155SOL     OW  508   0.495   0.816   2.780 -0.2819 -0.3474  0.1345
  155SOL    HW1  509   0.482   0.898   2.839  0.2547  0.2942  0.0021
  155SOL    HW2  510   0.405   0.794   2.741  0.9290 -0.2304 -1.9969
  156SOL     OW  511   0.450   2.748   2.878 -0.1223 -0.4072  0.6542
  156SOL    HW1  512   0.351   2.764   2.889 -0.9554 -1.6492  1.6007
  156SOL    HW2  513   0.487   2.811   2.935  1.5296 -0.5297 -0.5294
  157SOL     OW  514   0.488   1.852   1.572 -0.2289  0.7416 -0.2570
  157SOL    HW1  515   0.555   1.904   1.614 -2.0920  1.0072 -0.2601
  157SOL    HW2  516   0.407   1.898   1.573 -1.3120  1.0040  3.8734
  158SOL     OW  517   2.814   2.205   0.781  0.7569  0.1826  0.1080
  158SOL    HW1  518   2.903   2.240   0.785  1.5128 -2.4925  0.6992
  158SOL    HW2  519   2.755   2.278   0.798  1.2096 -0.9424 -1.1861
  159SOL     OW  520   1.626   1.710   0.303 -0.3470 -0.4934 -0.4078
  159SOL    HW1  521   1.590   1.776   0.362  1.0716 -1.3703 -0.8233
  159SOL    HW2  522   1.685   1.774   0.254  2.7092  0.8524  2.4871
  160SOL     OW  523   1.675   1.423   2.578  0.1358  0.2560 -0.3838
  160SOL    HW1  524   1.687   1.444   2.676  1.2859  1.1556 -0.0930
  160SOL    HW2  525   1.757   1.370   2.563  0.7675 -1.8650 -0.9595
  161SOL     OW  526   2.768   0.078   0.846 -0.0143  0.1394 -0.5888
  161SOL    HW1  527   2.829   0.036   0.921  1.2529  1.4645  0.5482
  161SOL    HW2  528   2.698   0.010   0.838  0.7016  0.5467  2.2979
  162SOL     OW  529   1.913   1.515   0.553 -0.5907  0.6132 -0.0890
  162SOL    HW1  530   1.836   1.538   0.608 -1.0213  1.6444  1.2388
  162SOL    HW2  531   1.977   1.549   0.619 -0.1749 -2.0068 -0.2797
  163SOL     OW  532   2.099   0.554   0.723  0.3247  0.0976  0.6599
  163SOL    HW1  533   2.169   0.616   0.758  1.9348  0.7614 -0.0340
  163SOL    HW2  534   2.098   0.575   0.632 -0.8077  0.0003  0.9001
  164SOL     OW  535   1.751   2.091   1.592 -0.2391 -0.8510  0.1577
  164SOL    HW1  536   1.743   2.178   1.551  0.5258  0.5329  0.5194
  164SOL    HW2  537   1.801   2.040   1.523  0.3125  0.4822  3.3368
  165SOL     OW  538   0.344   0.349   0.394 -0.0161  0.2372 -0.0117
  165SOL    HW1  539   0.430   0.394   0.378 -2.0863 -0.4294 -1.7684
  165SOL    HW2  540   0.371   0.286   0.462 -2.0170 -2.9430 -1.0730
  166SOL     OW  541   0.557   0.324   1.845 -0.1876  0.7367 -0.2821
  166SOL    HW1  542   0.585   0.244   1.897 -2.8110 -0.7893 -0.1764
  166SOL    HW2  543   0.467   0.298   1.824 -0.5142 -1.3318 -1.5905
  167SOL     OW  544   1.765   0.119   2.459 -0.3094  0.3300  0.3908
  167SOL    HW1  545   1.761   0.182   2.536  1.1165 -3.3356  1.7541
  167SOL    HW2  546   1.702   0.162   2.392  0.7032  0.1564 -0.7947
  168SOL     OW  547   0.887   0.649   2.236 -0.0696  0.2465 -0.3156
  168SOL    HW1  548   0.897   0.636   2.330  0.4785  2.5453 -0.2676
  168SOL    HW2  549   0.822   0.720   2.229  0.2664 -1.5925 -3.1500
  169SOL     OW  550   0.964   1.297   0.856  0.3927 -0.3776 -0.0642
  169SOL    HW1  551   0.915   1.266   0.935 -1.5217  1.4475  0.6318
  169SOL    HW2  552   1.024   1.359   0.910 -0.7133  1.9258  0.7362
  170SOL     OW  553   1.070   2.688   2.443 -0.0604 -0.2089  0.6785
  170SOL    HW1  554   1.087   2.600   2.441 -1.4511  0.4572  0.0046
  170SOL    HW2  555   1.132   2.734   2.374 -2.4111  1.6483 -1.5484
  171SOL     OW  556   2.049   1.521   2.431  0.1563  0.5161 -0.0521
  171SOL    HW1  557   2.141   1.520   2.408  0.6265 -0.3364  0.9778
  171SOL    HW2  558   2.022   1.429   2.440 -0.1227 -1.4006  3.0798
  172SOL     OW  559   0.792   2.000   1.025 -0.0065  0.1443  0.4914
  172SOL    HW1  560   0.783   1.946   1.108 -0.2404  0.5923 -0.7373
  172SOL    HW2  561   0.707   2.000   0.981  3.0621 -0.7598  2.9497
  173SOL     OW  562   1.970   1.281   2.299  0.0382 -0.9225 -0.1757
  173SOL    HW1  563   2.024   1.270   2.214 -0.0137 -0.8418  1.1334
  173SOL    HW2  564   1.939   1.190   2.302  3.2797  2.5546  2.0740
  174SOL     OW  565   1.690   1.526   2.846 -0.2147  0.1859  0.2591
  174SOL    HW1  566   1.601   1.542   2.895 -0.7594  0.9379 -1.1667
  174SOL    HW2  567   1.748   1.479   2.914  0.8458  0.1923 -0.3182
  175SOL     OW  568   0.146   0.846   1.161 -0.2742  0.0410 -0.2624
  175SOL    HW1  569   0.174   0.816   1.250  2.2123 -1.2516  1.8990
  175SOL    HW2  570   0.058   0.880   1.189  2.0561 -0.2830  0.4782
  176SOL     OW  571   1.217   1.681   2.489 -0.2386 -0.2978  0.4300
  176SOL    HW1  572   1.297   1.627   2.468  2.0904  0.3516 -0.3046
  176SOL    HW2  573   1.164   1.599   2.517  0.6301 -1.9235 -3.9901
  177SOL     OW  574   2.329   2.385   2.383 -0.1172 -0.0179  0.2659
  177SOL    HW1  575   2.342   2.300   2.329  0.2411 -2.0762 -0.5216
  177SOL    HW2  576   2.233   2.385   2.372  0.1461  0.5629  0.2299
  178SOL     OW  577   0.307   0.283   0.766 -0.3638 -0.3226 -0.7215
  178SOL    HW1  578   0.293   0.366   0.708  0.0908  2.8366 -1.2898
  178SOL    HW2  579   0.406   0.285   0.790  0.1138  1.0457  0.3543
  179SOL     OW  580   0.519   0.217   2.738 -0.4971 -0.0293  0.8457
  179SOL    HW1  581   0.518   0.266   2.650 -1.3923 -1.4938 -0.5217
  179SOL    HW2  582   0.515   0.297   2.797 -0.3316 -0.4121 -2.0321
  180SOL     OW  583   1.212   2.524   0.704 -0.2225  0.6217  0.1539
  180SOL    HW1  584   1.273   2.530   0.633 -0.6065 -0.3801 -1.6623
  180SOL    HW2  585   1.277   2.486   0.766  0.3489 -0.4465  1.6771
  181SOL     OW  586   0.992   0.182   2.558  0.1924  0.0215  0.7046
  181SOL    HW1  587   0.980   0.237   2.473  0.4114 -1.9577  0.0305
  181SOL    HW2  588   1.084   0.150   2.548  1.1270 -0.7304 -4.1673
  182SOL     OW  589   2.492   2.461   1.945 -0.3177  0.4197  0.5189
  182SOL    HW1  590   2.440   2.382   1.951  0.9329 -0.3639 -0.3025
  182SOL    HW2  591   2.446   2.504   1.864  1.5572  1.2072  0.9767
  183SOL     OW  592   2.552   0.762   0.880  0.0202  0.5058 -0.6494
  183SOL    HW1  593   2.640   0.731   0.846 -1.6367  0.1124  0.3715
  183SOL    HW2  594   2.568   0.823   0.957  1.0638 -0.3891 -1.0695
  184SOL     OW  595   1.721   0.825   1.081 -1.0540 -0.0498 -0.2577
  184SOL    HW1  596   1.800   0.882   1.091 -0.8541  0.1300 -0.0360
  184SOL    HW2  597   1.748   0.791   0.989  2.9079  1.7387  0.3282
  185SOL     OW  598   2.287   2.991   0.710  0.0959 -0.1430  0.5768
  185SOL    HW1  599   2.220   3.055   0.734  2.1535  1.4334 -0.0339
  185SOL    HW2  600   2.232   2.910   0.687 -0.5856  2.6986  0.2528
  186SOL     OW  601   0.735   2.010   2.149 -0.0431  0.5972  0.2173
  186SOL    HW1  602   0.820   1.977   2.112 -2.6651  0.4761 -0.6778
  186SOL    HW2  603   0.671   1.976   2.082  2.6174 -0.0832 -1.0330
  187SOL     OW  604   1.050   2.113   1.423 -0.0058  0.0431  0.1595
  187SOL    HW1  605   0.993   2.136   1.341  1.2146  1.0003 -1.6319
  187SOL    HW2  606   0.987   2.051   1.470  0.2200 -0.4411 -0.2714
  188SOL     OW  607   1.726   0.037   1.173 -0.1586  0.0621 -0.4055
  188SOL    HW1  608   1.782  -0.021   1.116 -0.2747  1.4294 -1.4932
  188SOL    HW2  609   1.630   0.028   1.140  2.1138 -0.2694 -0.0163
  189SOL     OW  610   1.284   1.781   0.052 -0.0864  0.2078 -0.4289
  189SOL    HW1  611   1.214   1.818   0.117 -0.3037 -3.6719  0.9902
  189SOL    HW2  612   1.253   1.831  -0.024 -4.8333 -1.3100 -0.6673
  190SOL     OW  613   0.262   2.796   1.809 -0.2834  0.2543  0.1663
  190SOL    HW1  614   0.194   2.818   1.746  0.5951  1.2246  0.7707
  190SOL    HW2  615   0.202   2.759   1.874 -0.4363  4.0232 -1.4848
  191SOL     OW  616   1.326   2.133   0.830  0.4036  0.0004 -0.5000
  191SOL    HW1  617   1.275   2.116   0.910 -2.2933 -1.3210 -1.1757
  191SOL    HW2  618   1.251   2.154   0.771 -1.2650  1.5859 -0.1023
  192SOL     OW  619   2.234   0.282   1.634 -0.3229 -0.3820  0.8636
  192SOL    HW1  620   2.233   0.361   1.574 -1.4292  0.0738 -1.6790
  192SOL    HW2  621   2.198   0.214   1.579 -0.7597  0.7327 -1.9538
  193SOL     OW  622   2.964   1.642   0.377 -0.1003 -0.3412 -0.6623
  193SOL    HW1  623   3.040   1.649   0.321  0.8596  0.0339 -0.7589
  193SOL    HW2  624   2.925   1.561   0.340  1.2393  0.3138  1.1921
  194SOL     OW  625   1.073   0.519   1.333 -0.1176  0.0579  0.0854
  194SOL    HW1  626   1.159   0.566   1.336  1.5428  1.8198 -2.2337
  194SOL    HW2  627   1.109   0.426   1.350  0.8798 -1.6599 -2.8268
  195SOL     OW  628   1.351   1.578   0.603 -0.2974 -0.4735  0.3006
  195SOL    HW1  629   1.339   1.560   0.697 -0.6096 -0.5264 -1.3367
  195SOL    HW2  630   1.273   1.632   0.582  0.4816  0.9220 -0.4918
  196SOL     OW  631   0.017   0.843   2.053  0.0630  0.4894  0.3101
  196SOL    HW1  632   0.104   0.802   2.073  0.1015 -0.0959  1.8631
  196SOL    HW2  633  -0.046   0.769   2.074  2.1002  0.1936  1.6747
  197SOL     OW  634   2.580   1.854   1.169  0.0198  0.0075 -0.5180
  197SOL    HW1  635   2.506   1.909   1.202  1.1935  0.9887 -0.7396
  197SOL    HW2  636   2.579   1.796   1.247  1.3000 -0.2505  0.3685
  198SOL     OW  637   2.070   0.707   1.875 -0.4959  0.4487  0.3459
  198SOL    HW1  638   2.145   0.712   1.815  1.0589  0.6201 -1.7496
  198SOL    HW2  639   2.003   0.749   1.817 -3.3779  0.5708 -1.7920
  199SOL     OW  640   1.413   0.341   0.557  0.3217 -0.1097  0.1376
  199SOL    HW1  641   1.337   0.345   0.609 -1.7282  2.2028 -1.8223
  199SOL    HW2  642   1.468   0.417   0.595  0.2790 -0.6528 -0.1734
  200SOL     OW  643   1.850   0.621   2.619  0.5289  0.0357 -0.1999
  200SOL    HW1  644   1.945   0.630   2.612  1.5186 -1.0481  1.3428
  200SOL    HW2  645   1.830   0.694   2.683 -1.6805  1.9823  1.6738
  201SOL     OW  646   0.261   2.835   0.084  0.0951 -0.2310 -0.4537
  201SOL    HW1  647   0.186   2.778   0.067  0.4137  1.5885  2.9312
  201SOL    HW2  648   0.213   2.912   0.115  0.9670  1.1828 -0.8322
  202SOL     OW  649   0.912   2.070   1.748  0.5059  0.5411 -0.3968
  202SOL    HW1  650   0.927   2.004   1.675  1.4606 -0.0489  1.1446
  202SOL    HW2  651   0.925   2.154   1.695 -0.5786  0.1770 -2.5459
  203SOL     OW  652   1.277   1.241   0.944 -0.6174  0.2957  0.2021
  203SOL    HW1  653   1.295   1.296   0.866  3.1538 -0.1262  1.5888
  203SOL    HW2  654   1.248   1.307   1.004  1.1394 -2.3662  3.1823
  204SOL     OW  655   0.350   1.149   2.041  0.0742  0.3320  0.0164
  204SOL    HW1  656   0.346   1.094   1.965 -0.9962  0.7169 -2.9598
  204SOL    HW2  657   0.265   1.142   2.077  1.7534 -2.2585 -0.9041
  205SOL     OW  658   2.872   2.062   2.541 -0.9603 -0.3650 -0.3055
  205SOL    HW1  659   2.845   1.972   2.564 -1.3598  0.8887 -2.1740
  205SOL    HW2  660   2.936   2.060   2.614 -2.4768  3.1232 -0.5456
  206SOL     OW  661   0.289   2.660   2.192 -0.4211  0.5659 -0.3940
  206SOL    HW1  662   0.224   2.681   2.126  0.1072 -0.7491 -0.4241
  206SOL    HW2  663   0.332   2.581   2.152 -1.0313  0.1296 -0.1117
  207SOL     OW  664   1.390   2.111   2.523 -0.2334 -0.0755  0.2363
  207SOL    HW1  665   1.359   2.030   2.569 -1.4918  0.8793  2.6122
  207SOL    HW2  666   1.403   2.165   2.604  1.8602  3.2526 -1.9024
  208SOL     OW  667   0.689   1.687   2.157 -0.9556 -0.0935  0.4698
  208SOL    HW1  668   0.739   1.658   2.079 -2.2927 -1.2753 -1.2046
  208SOL    HW2  669   0.759   1.675   2.223  0.1033  1.1111 -1.4346
  209SOL     OW  670   2.257   2.491   2.768 -0.5707  0.4811  0.1283
  209SOL    HW1  671   2.244   2.586   2.782 -0.0304  4.3929  1.3680
  209SOL    HW2  672   2.301   2.473   2.857  2.0392 -1.8848  0.2368
  210SOL     OW  673   1.463   2.639   2.078  1.4233 -0.3987 -0.4847
  210SOL    HW1  674   1.380   2.590   2.059  0.7376  0.4375 -0.2858
  210SOL    HW2  675   1.535   2.570   2.066 -0.5795 -0.4149  1.2695
  211SOL     OW  676   1.299   0.501   1.024  0.0290 -0.9352 -0.0320
  211SOL    HW1  677   1.386   0.491   1.061  2.1171 -1.5362 -0.3929
  211SOL    HW2  678   1.266   0.561   1.090  0.0410 -2.3626  1.8728
  212SOL     OW  679   1.314   1.786   1.705  0.3333 -0.3833 -0.0748
  212SOL    HW1  680   1.284   1.881   1.714  1.1475  0.9639 -2.7119
  212SOL    HW2  681   1.363   1.765   1.784  0.2584  1.3773 -2.0808
  213SOL     OW  682   0.700   1.116   2.328 -0.0536 -0.1331 -0.4148
  213SOL    HW1  683   0.709   1.073   2.409 -0.0386 -0.9935 -2.0028
  213SOL    HW2  684   0.664   1.200   2.360 -0.7610  1.6319  1.7261
  214SOL     OW  685   2.192   1.804   1.023 -0.1824  0.1806 -0.3790
  214SOL    HW1  686   2.099   1.782   1.020 -3.2621  2.1428 -3.2997
  214SOL    HW2  687   2.194   1.901   1.041  1.5570  0.7781  0.1239
  215SOL     OW  688   2.922   1.462   2.483  0.4234 -0.5435 -0.2390
  215SOL    HW1  689   2.931   1.424   2.576  1.8591 -0.5119  0.8366
  215SOL    HW2  690   2.961   1.551   2.503 -1.5055 -2.6414 -0.3683
  216SOL     OW  691   0.308   1.760   1.874  0.3670 -0.1393  0.3750
  216SOL    HW1  692   0.313   1.661   1.881  0.9894  0.1416  1.3230
  216SOL    HW2  693   0.385   1.782   1.931  1.2003  0.1992  1.9807
  217SOL     OW  694   2.557   2.299   1.694 -0.2763 -0.0926  0.3133
  217SOL    HW1  695   2.607   2.217   1.706 -0.7205 -0.7321 -0.5507
  217SOL    HW2  696   2.621   2.375   1.718  0.1182  1.5809  1.1932
  218SOL     OW  697   1.420   0.944   2.914  0.4733 -0.3027  0.1466
  218SOL    HW1  698   1.503   0.951   2.859  1.8215 -0.4686 -0.2251
  218SOL    HW2  699   1.454   0.916   3.001 -0.9592 -1.3105 -2.6403
  219SOL     OW  700   2.383   0.383   0.397  0.4546  0.0104  0.0943
  219SOL    HW1  701   2.316   0.356   0.471  1.4001  2.5072  0.1507
  219SOL    HW2  702   2.324   0.377   0.318 -1.3246 -0.7752 -0.5271
  220SOL     OW  703   2.363   1.112   2.582  0.0843  0.0947  0.4007
  220SOL    HW1  704   2.433   1.045   2.596 -0.3262 -1.4070  0.7401
  220SOL    HW2  705   2.372   1.125   2.484 -1.5206 -1.0458 -0.5935
  221SOL     OW  706   0.302   0.167   0.041  0.3709 -0.3657  0.3385
  221SOL    HW1  707   0.369   0.123   0.093 -1.8478  0.2841 -3.3491
  221SOL    HW2  708   0.338   0.142  -0.046  1.5773 -1.6887  2.7457
  222SOL     OW  709   1.220   2.839   2.268 -0.1935 -0.2209 -0.2668
  222SOL    HW1  710   1.249   2.836   2.174  1.6792  1.5820 -2.4584
  222SOL    HW2  711   1.306   2.841   2.310  2.4889  1.2523 -1.4427
  223SOL     OW  712   1.388   2.419   0.873  0.4673  0.2114 -0.1399
  223SOL    HW1  713   1.438   2.344   0.900 -1.1082 -0.6654 -0.0088
  223SOL    HW2  714   1.463   2.490   0.871  3.2704  0.4474 -0.1156
  224SOL     OW  715   2.140   1.375   2.846  0.3764  0.0110 -0.1004
  224SOL    HW1  716   2.098   1.451   2.802  0.2556 -0.6752 -1.4628
  224SOL    HW2  717   2.108   1.379   2.932 -1.2251 -0.2269 -2.1787
  225SOL     OW  718   1.958   2.229   2.096 -0.1713  0.7671  0.1933
  225SOL    HW1  719   1.893   2.224   2.022  2.2197 -0.3505 -2.9995
  225SOL    HW2  720   2.030   2.168   2.061  0.6480  1.8732  0.2687
  226SOL     OW  721   1.574   1.340   0.641 -0.2998  0.1887  0.0146
  226SOL    HW1  722   1.493   1.323   0.594 -1.1963  0.5079  0.7974
  226SOL    HW2  723   1.586   1.438   0.624  0.8140  0.8156 -0.8981
  227SOL     OW  724   2.782   1.431   0.846  0.1552 -0.6244  0.4168
  227SOL    HW1  725   2.803   1.524   0.869 -1.1247 -1.0624 -1.7939
  227SOL    HW2  726   2.835   1.418   0.760  1.1497 -1.0485 -0.0841
  228SOL     OW  727   2.796   2.727   0.712  0.2317  0.1025 -0.4630
  228SOL    HW1  728   2.880   2.715   0.660 -0.9138  0.8479  1.0594
  228SOL    HW2  729   2.730   2.743   0.644  2.3713 -2.4449 -0.3413
  229SOL     OW  730   2.309   0.531   2.995 -0.1807 -0.2468  0.0514
  229SOL    HW1  731   2.368   0.598   3.035 -0.4190 -2.3460 -3.6655
  229SOL    HW2  732   2.259   0.581   2.935  1.3345  0.8043  1.5590
  230SOL     OW  733   1.265   2.059   1.726 -0.2747  0.2900 -0.4509
  230SOL    HW1  734   1.274   2.138   1.664  0.4002  2.8061  0.1008
  230SOL    HW2  735   1.361   2.033   1.736  0.9124 -3.2320 -0.0601
  231SOL     OW  736   1.996   2.237   0.820 -0.0515 -0.4189  0.0410
  231SOL    HW1  737   2.070   2.257   0.882  0.4546  1.3914  2.2725
  231SOL    HW2  738   2.036   2.218   0.730  0.0474  0.9062  1.4461
  232SOL     OW  739   2.790   2.643   0.971 -0.3279  0.2159  0.0294
  232SOL    HW1  740   2.784   2.697   0.892 -1.5074  2.1145  1.3571
  232SOL    HW2  741   2.720   2.577   0.956 -2.6737  2.3404 -1.4159
  233SOL     OW  742   1.414   0.074   0.754  0.1043  0.4481  0.2009
  233SOL    HW1  743   1.358  -0.007   0.758 -1.1360  3.2535 -0.4664
  233SOL    HW2  744   1.376   0.132   0.692 -2.3014  0.1327 -0.0211
  234SOL     OW  745   1.703   1.904   0.463  0.4947  0.0859  0.8717
  234SOL    HW1  746   1.805   1.897   0.484 -1.7593 -1.8188 -1.2604
  234SOL    HW2  747   1.692   2.006   0.466 -2.9105 -3.0407 -1.7177
  235SOL     OW  748   2.314   0.731   0.465  0.2156  0.1791 -0.3981
  235SOL    HW1  749   2.402   0.754   0.452  1.7054  1.4068 -3.0857
  235SOL    HW2  750   2.317   0.707   0.557  0.3862 -0.5924  2.1325
  236SOL     OW  751   0.032   0.032   2.238  0.2323 -0.1653  0.6365
  236SOL    HW1  752   0.031   0.007   2.140 -3.6356  1.0849  0.5473
  236SOL    HW2  753  -0.061   0.030   2.249  0.3304 -1.0917  1.4731
  237SOL     OW  754   0.693   0.155   0.037 -0.5038 -0.0601 -0.2452
  237SOL    HW1  755   0.752   0.115   0.108 -0.1709 -4.3606 -3.7157
  237SOL    HW2  756   0.620   0.096   0.036 -5.4544  1.3149 -0.1138
  238SOL     OW  757   2.281   0.983   0.912  0.2854  0.1452 -0.0840
  238SOL    HW1  758   2.198   1.021   0.879  2.8295 -0.2256  0.1337
  238SOL    HW2  759   2.352   1.037   0.863  0.5805 -1.2843  0.6163
  239SOL     OW  760   0.304   2.059   1.458  0.6691  0.5662  0.5690
  239SOL    HW1  761   0.327   2.112   1.539  2.9102 -0.2058  1.6475
  239SOL    HW2  762   0.221   2.108   1.434 -1.8353  2.3837  1.1666
  240SOL     OW  763   1.977   1.054   0.328 -0.1876  0.3099  0.5649
  240SOL    HW1  764   2.033   1.106   0.390  1.1213  0.9857  0.1891
  240SOL    HW2  765   1.888   1.079   0.344  0.8067  0.0773  1.4191
  241SOL     OW  766   0.481   1.046   0.054 -0.2371 -0.2037  0.2244
  241SOL    HW1  767   0.394   1.009   0.082  0.2775 -0.6817  2.1073
  241SOL    HW2  768   0.449   1.129   0.007 -0.9754  0.9697 -0.2122
  242SOL     OW  769   0.537   2.558   2.409 -0.0884  0.0806 -0.1644
  242SOL    HW1  770   0.623   2.582   2.444  0.8996 -0.6873 -1.3403
  242SOL    HW2  771   0.482   2.631   2.444 -1.1060 -0.3643 -2.0634
  243SOL     OW  772   1.730   0.228   0.239 -0.0142  0.2687 -0.0865
  243SOL    HW1  773   1.638   0.209   0.268 -3.2658  2.4292  2.7924
  243SOL    HW2  774   1.748   0.291   0.310 -1.5333  1.4140 -1.0201
  244SOL     OW  775   0.249   2.427   1.022  0.6467 -0.3363 -0.1108
  244SOL    HW1  776   0.257   2.472   0.930  2.9720  0.9624  1.2472
  244SOL    HW2  777   0.336   2.457   1.058  0.9023 -0.1348  2.1620
  245SOL     OW  778   1.216   2.862   0.472  0.2509 -0.0380  0.2108
  245SOL    HW1  779   1.231   2.866   0.371 -0.6848  1.4473 -0.0265
  245SOL    HW2  780   1.206   2.953   0.509 -1.6323 -0.6692  2.3990
  246SOL     OW  781   2.586   2.255   1.185 -0.0479 -0.5849 -0.5943
  246SOL    HW1  782   2.544   2.329   1.132 -1.5060 -0.1420 -1.1582
  246SOL    HW2  783   2.547   2.251   1.270  0.5326 -1.0413 -1.0668
  247SOL     OW  784   0.327   1.502   1.967 -0.2655 -0.0377 -0.4228
  247SOL    HW1  785   0.348   1.566   2.042  1.4438  1.9419  3.2555
  247SOL    HW2  786   0.242   1.464   1.981  0.3333 -2.1835 -0.4770
  248SOL     OW  787   2.812   2.441   1.339 -0.1086 -0.0287 -0.2147
  248SOL    HW1  788   2.850   2.479   1.258  1.0468  1.2544  2.5835
  248SOL    HW2  789   2.745   2.385   1.305  1.6695 -0.0336 -0.9495
  249SOL     OW  790   1.724   1.151   0.484  0.3561 -0.1732 -0.4922
  249SOL    HW1  791   1.642   1.120   0.505  1.8521 -0.9034  1.2478
  249SOL    HW2  792   1.725   1.219   0.552 -3.1241 -1.7717  0.7801
  250SOL     OW  793   0.212   1.005   2.395  0.0154  0.0226 -0.0082
  250SOL    HW1  794   0.118   0.983   2.387  1.0575 -1.1662 -0.1988
  250SOL    HW2  795   0.206   1.090   2.441  1.0763  0.9670  0.3323
  251SOL     OW  796   0.013   0.221   1.832 -0.1505 -0.3421 -0.1176
  251SOL    HW1  797  -0.079   0.218   1.816  1.5302  1.0137  0.7108
  251SOL    HW2  798   0.014   0.296   1.896  1.4809  1.5712  0.6463
  252SOL     OW  799   0.652   1.515   1.010 -0.4176  0.0896 -0.1508
  252SOL    HW1  800   0.686   1.502   1.096  1.0534  0.7867 -0.6449
  252SOL    HW2  801   0.604   1.429   1.008 -2.6010 -1.2793  0.7161
  253SOL     OW  802   2.276   1.807   2.121 -0.2801  0.4786  0.6982
  253SOL    HW1  803   2.367   1.853   2.125 -1.4045  0.9245 -0.7873
  253SOL    HW2  804   2.240   1.840   2.207 -2.1363  2.3181  2.0842
  254SOL     OW  805   2.058   0.271   1.020 -0.4649  0.1211  0.2376
  254SOL    HW1  806   1.970   0.304   1.046 -1.2681 -0.9557 -1.6965
  254SOL    HW2  807   2.059   0.179   1.061  0.2994  1.1349 -2.0240
  255SOL     OW  808   1.626   0.295   1.909  0.3839  0.0329 -0.3628
  255SOL    HW1  809   1.687   0.223   1.896  1.1968 -1.3089 -1.2840
  255SOL    HW2  810   1.572   0.271   1.987  0.8884 -1.1842  0.0474
  256SOL     OW  811   1.363   1.324   2.320 -0.1049  0.0462 -0.7206
  256SOL    HW1  812   1.295   1.250   2.339 -2.4154 -2.3545 -3.7831
  256SOL    HW2  813   1.352   1.325   2.223 -0.7811 -2.7905 -0.0697
  257SOL     OW  814   2.732   1.104   0.769  0.1906  0.3962 -0.4091
  257SOL    HW1  815   2.784   1.175   0.736  0.2271 -0.5015 -0.8392
  257SOL    HW2  816   2.702   1.068   0.684  0.9321 -1.9678  1.2178
  258SOL     OW  817   2.291   0.720   0.798 -0.1253 -0.6413 -0.0212
  258SOL    HW1  818   2.282   0.813   0.840 -0.1945 -0.8567 -0.1878
  258SOL    HW2  819   2.380   0.700   0.841 -0.1013  0.7814 -2.4019
  259SOL     OW  820   1.448   0.426   0.061  0.4814  1.1305 -0.4000
  259SOL    HW1  821   1.380   0.359   0.057 -1.3718  1.6993 -0.7439
  259SOL    HW2  822   1.509   0.407  -0.015 -1.5228  0.5790 -0.6038
  260SOL     OW  823   1.879   0.985   2.513 -0.0741  0.2140 -0.3414
  260SOL    HW1  824   1.967   0.964   2.469  3.1241  1.1492  1.0239
  260SOL    HW2  825   1.917   1.007   2.591  0.1876 -3.2936 -1.8656
  261SOL     OW  826   2.408   0.174   2.747  0.1109  0.2425  0.2624
  261SOL    HW1  827   2.415   0.108   2.682 -0.5357 -1.5838 -0.6256
  261SOL    HW2  828   2.383   0.120   2.823  1.3607  1.0694 -2.1855
  262SOL     OW  829   0.552   0.533   0.311 -0.2673 -0.5402  0.1419
  262SOL    HW1  830   0.526   0.576   0.228  0.0375 -1.9759  2.6814
  262SOL    HW2  831   0.643   0.507   0.300 -1.3595  1.8394  1.0722
  263SOL     OW  832   0.521   0.916   0.987 -0.1147 -0.2587 -0.5626
  263SOL    HW1  833   0.560   0.826   0.979  2.0523 -3.4620 -0.1628
  263SOL    HW2  834   0.547   0.938   1.079  2.0813 -0.4523 -1.5503
  264SOL     OW  835   2.980   0.854   0.050  0.3185  0.9139  0.1743
  264SOL    HW1  836   2.927   0.933   0.068 -0.6752  0.7517  0.2364
  264SOL    HW2  837   2.917   0.796   0.002  1.9031  0.7657 -0.4490
  265SOL     OW  838   0.888   1.028   1.265  0.0307  0.1333 -0.0279
  265SOL    HW1  839   0.862   0.979   1.351  0.5107 -1.0525 -1.3470
  265SOL    HW2  840   0.920   0.951   1.211  0.4197 -0.7359  2.1918
  266SOL     OW  841   1.995   2.943   2.803  0.2339 -0.1511  0.2343
  266SOL    HW1  842   1.956   3.021   2.840 -1.2037  2.2039  0.3584
  266SOL    HW2  843   1.942   2.873   2.841  3.7659 -1.3337 -0.1240
  267SOL     OW  844   2.350   0.382   2.569  0.4777  0.1992 -0.0876
  267SOL    HW1  845   2.379   0.323   2.643 -0.8771  1.4460  1.0812
  267SOL    HW2  846   2.349   0.328   2.488 -0.2716 -0.3476  0.4603
  268SOL     OW  847   1.185   1.558   1.540  0.1632 -0.1513  0.2638
  268SOL    HW1  848   1.209   1.651   1.570 -1.8298 -2.7152 -0.3177
  268SOL    HW2  849   1.268   1.514   1.574 -0.9734  1.4242 -3.3224
  269SOL     OW  850   0.448   1.276   0.253  0.4308  0.2921  0.2435
  269SOL    HW1  851   0.539   1.270   0.279  0.4129  0.2412  0.6510
  269SOL    HW2  852   0.460   1.253   0.165 -0.5111 -0.4288 -1.5640
  270SOL     OW  853   2.181   2.334   1.001 -0.4310  0.0626  0.0528
  270SOL    HW1  854   2.204   2.242   0.984 -1.2512 -0.7820 -0.2282
  270SOL    HW2  855   2.265   2.379   1.011  0.0472 -0.3856 -0.7366
  271SOL     OW  856   1.395   1.706   1.974 -0.2603  0.1631  0.1523
  271SOL    HW1  857   1.313   1.750   2.005  0.5987  0.7350  2.7858
  271SOL    HW2  858   1.387   1.616   1.999 -2.8636 -1.1710  0.2128
  272SOL     OW  859   2.313   2.234   2.663  0.0718  0.3082  0.4314
  272SOL    HW1  860   2.231   2.177   2.657 -2.1142 -0.1327 -0.5316
  272SOL    HW2  861   2.265   2.315   2.675 -1.4993 -2.2485  2.4345
  273SOL     OW  862   2.432   2.985   1.369 -0.5138  0.3249 -0.0330
  273SOL    HW1  863   2.493   3.008   1.441 -0.3027  0.4560  1.3516
  273SOL    HW2  864   2.409   3.073   1.328 -0.9867 -2.6019  3.4548
  274SOL     OW  865   1.912   1.991   1.366  0.4115 -0.7815 -0.2081
  274SOL    HW1  866   1.888   1.922   1.298 -0.0652 -3.7845 -0.2892
  274SOL    HW2  867   1.899   2.071   1.310  0.1879 -0.1306  1.7887
  275SOL     OW  868   2.966   2.716   0.290  0.0174  0.2730  0.1181
  275SOL    HW1  869   2.979   2.806   0.282 -1.5436  1.7133  0.3735
  275SOL    HW2  870   3.017   2.691   0.210  1.1527 -1.3442 -0.2642
  276SOL     OW  871   0.509   1.219   1.414 -0.4483 -0.0285  0.3676
  276SOL    HW1  872   0.462   1.147   1.364  1.6596 -0.1955 -0.2048
  276SOL    HW2  873   0.577   1.171   1.465  4.7307 -0.0146  0.1786
  277SOL     OW  874   2.320   2.172   0.789  0.0316 -0.0440 -0.8138
  277SOL    HW1  875   2.256   2.192   0.719 -0.7215  0.5676 -0.1486
  277SOL    HW2  876   2.332   2.080   0.768  0.6951  0.7415  1.7721
  278SOL     OW  877   0.775   2.624   2.511  0.4358  0.1370  0.0039
  278SOL    HW1  878   0.858   2.632   2.464 -0.1292  1.1301  1.5658
  278SOL    HW2  879   0.789   2.694   2.576 -1.8768 -3.1333  0.6287
  279SOL     OW  880   1.639   2.786   0.449 -0.2336  0.0266 -0.3139
  279SOL    HW1  881   1.556   2.747   0.476 -0.9598  3.7976  0.4905
  279SOL    HW2  882   1.615   2.856   0.392 -0.9035 -0.0471  2.5424
  280SOL     OW  883   1.785   1.916   2.478  0.0961  0.2125 -0.2476
  280SOL    HW1  884   1.788   1.866   2.561  0.0520 -1.9120 -1.0425
  280SOL    HW2  885   1.812   1.849   2.414  1.7412 -2.5400 -0.2892
  281SOL     OW  886   0.659   2.497   0.879  0.5198  0.6405 -0.1945
  281SOL    HW1  887   0.604   2.516   0.959 -0.4654  0.4261  0.6062
  281SOL    HW2  888   0.730   2.561   0.890  3.1913 -2.3326 -1.7926
  282SOL     OW  889   0.182   2.375   2.051 -0.1763  0.3033  0.5157
  282SOL    HW1  890   0.111   2.434   2.034 -4.4870  0.6376  2.1945
  282SOL    HW2  891   0.183   2.370   2.146  0.8735 -1.4723  2.1679
  283SOL     OW  892   0.174   2.017   2.017  0.3386  0.5617 -0.0583
  283SOL    HW1  893   0.161   2.009   1.920 -2.9139 -0.8843 -1.2443
  283SOL    HW2  894   0.141   1.930   2.054 -2.3112  1.7590  1.9946
  284SOL     OW  895   0.320   1.479   0.411 -0.3488  0.6608 -0.0983
  284SOL    HW1  896   0.309   1.426   0.494  0.0992 -1.0181  0.1296
  284SOL    HW2  897   0.371   1.409   0.367  0.1626  1.9184  2.3332
  285SOL     OW  898   1.675   0.885   1.334  0.2334 -0.0321  0.1136
  285SOL    HW1  899   1.684   0.857   1.242  2.0240  0.2183  1.4753
  285SOL    HW2  900   1.574   0.887   1.342 -2.5863 -0.4420 -2.0964
  286SOL     OW  901   2.767   1.851   0.327 -0.5580 -0.4327  0.6757
  286SOL    HW1  902   2.798   1.890   0.408 -2.2071  1.3569 -0.7089
  286SOL    HW2  903   2.811   1.764   0.348  0.0100  3.8323  2.0819
  287SOL     OW  904   1.941   1.250   1.200 -0.2582  0.7339 -0.1968
  287SOL    HW1  905   1.850   1.233   1.165  1.5326 -0.1745 -2.1716
  287SOL    HW2  906   1.920   1.308   1.279 -1.7261 -0.3460 -2.9329
  288SOL     OW  907   1.953   2.036   1.004 -0.2346 -0.7849  0.5379
  288SOL    HW1  908   1.971   2.105   0.942  0.3292 -2.0623 -3.4535
  288SOL    HW2  909   1.911   1.973   0.940  1.2079  0.8611  0.1211
  289SOL     OW  910   2.342   2.899   1.921  0.7362  0.2566 -0.5744
  289SOL    HW1  911   2.259   2.958   1.908  0.2506  1.9318  2.6223
  289SOL    HW2  912   2.298   2.841   1.985  1.0784  0.1873 -3.9998
  290SOL     OW  913   1.085   1.918   2.789  0.1980 -0.6944  0.1478
  290SOL    HW1  914   1.021   1.911   2.713  0.4737  1.0657 -0.3308
  290SOL    HW2  915   1.022   1.921   2.867  1.6906  3.0881 -3.3230
  291SOL     OW  916   1.526   1.647   0.038  0.1040  0.3732 -0.2515
  291SOL    HW1  917   1.513   1.641   0.133  0.0684  0.9401  0.4131
  291SOL    HW2  918   1.437   1.674   0.005 -3.3575 -1.2388  2.1229
  292SOL     OW  919   0.279   1.865   2.499 -0.2753  0.2959 -0.1173
  292SOL    HW1  920   0.350   1.875   2.433 -0.2226 -1.8950  0.9923
  292SOL    HW2  921   0.339   1.844   2.571  1.6102  1.9187 -0.5976
  293SOL     OW  922   0.108   1.254   0.141  1.0940 -0.1188 -0.4201
  293SOL    HW1  923   0.177   1.286   0.074  0.8360  1.4017 -0.0085
  293SOL    HW2  924   0.139   1.162   0.142  1.4692 -0.9496 -2.9715
  294SOL     OW  925   2.390   0.182   2.325 -0.7518  0.2383  0.1068
  294SOL    HW1  926   2.306   0.140   2.300  0.0747 -1.0408 -0.4989
  294SOL    HW2  927   2.455   0.111   2.323  0.7833 -0.4280 -1.0435
  295SOL     OW  928   1.517   0.575   0.664  0.3353  0.1325 -0.0030
  295SOL    HW1  929   1.599   0.625   0.677  0.4026  0.5320 -0.4213
  295SOL    HW2  930   1.452   0.634   0.713  1.7977  1.2954 -0.0200
  296SOL     OW  931   1.887   2.610   1.187  0.4329  0.2277  0.0601
  296SOL    HW1  932   1.950   2.536   1.190  1.3568 -0.9312  1.2270
  296SOL    HW2  933   1.799   2.568   1.196 -1.5600 -1.9923 -1.8215
  297SOL     OW  934   0.356   2.651   0.390 -0.1685  0.1104  0.1864
  297SOL    HW1  935   0.339   2.734   0.435  1.7424 -1.1048 -2.4969
  297SOL    HW2  936   0.281   2.641   0.335  0.8172  2.1621  0.7976
  298SOL     OW  937   0.977   1.692   1.687  0.6684  0.3230 -0.1834
  298SOL    HW1  938   1.060   1.661   1.727 -1.4637  1.0599  1.2206
  298SOL    HW2  939   0.921   1.660   1.759 -0.5667 -0.2074  0.6039
  299SOL     OW  940   0.396   2.716   2.576 -0.8912 -0.0280 -0.0868
  299SOL    HW1  941   0.457   2.741   2.649 -2.7025  0.0503  0.6855
  299SOL    HW2  942   0.305   2.701   2.609 -1.1239 -0.4045 -1.2368
  300SOL     OW  943   2.271   2.168   2.255  0.7804  0.1584 -0.0146
  300SOL    HW1  944   2.205   2.105   2.288  0.0578 -3.8918  1.7552
  300SOL    HW2  945   2.296   2.122   2.171  0.6265 -0.6172  2.4904
  301SOL     OW  946   1.424   0.260   2.112 -0.1013 -0.7853  0.6895
  301SOL    HW1  947   1.364   0.293   2.181 -1.5004 -2.4234 -0.4586
  301SOL    HW2  948   1.374   0.188   2.070 -1.9873 -0.8083 -0.8553
  302SOL     OW  949   2.261   0.145   0.390 -0.6424 -0.1614 -0.2175
  302SOL    HW1  950   2.201   0.199   0.451  2.2721  1.2137 -0.6305
  302SOL    HW2  951   2.235   0.171   0.300 -0.4904  1.0012  1.3253
  303SOL     OW  952   0.693   2.428   1.767 -0.1574  0.7305  0.4761
  303SOL    HW1  953   0.616   2.369   1.752  0.3988 -1.1146  1.7324
  303SOL    HW2  954   0.649   2.483   1.830 -2.9337  0.7619 -0.5754
  304SOL     OW  955   2.091   1.945   2.309 -0.1956  0.2248  0.2874
  304SOL    HW1  956   2.037   1.856   2.315 -0.3714 -4.3405 -0.5275
  304SOL    HW2  957   2.022   2.014   2.317 -1.0420 -0.7535 -0.1817
  305SOL     OW  958   2.498   0.306   0.028  0.0426  0.2669  0.0343
  305SOL    HW1  959   2.432   0.355  -0.023  2.6035  0.5636 -3.1268
  305SOL    HW2  960   2.461   0.219   0.033 -1.1872  0.9767 -1.2896
  306SOL     OW  961   0.069   0.344   2.489 -0.5240 -0.0721 -0.1848
  306SOL    HW1  962   0.145   0.299   2.526 -1.6007 -1.3256 -0.8811
  306SOL    HW2  963  -0.003   0.323   2.550  0.6903  1.2049 -0.6357
  307SOL     OW  964   0.453   0.084   1.601  0.1640 -0.0522  0.1824
  307SOL    HW1  965   0.428   0.112   1.509 -0.6899  2.5562 -1.6869
  307SOL    HW2  966   0.426   0.164   1.642  1.4064 -0.6894  0.7971
  308SOL     OW  967   2.398   0.640   2.689  0.2475  0.3461 -0.5066
  308SOL    HW1  968   2.461   0.611   2.760  3.0720 -0.4548 -1.2380
  308SOL    HW2  969   2.404   0.562   2.631  0.1066  1.5712 -1.5055
  309SOL     OW  970   2.046   1.118   0.080  0.3986  0.0363  0.0696
  309SOL    HW1  971   2.029   1.068   0.157 -2.3670  1.0748  0.7539
  309SOL    HW2  972   2.106   1.187   0.121  0.5742 -0.0219 -2.0601
  310SOL     OW  973   1.988   2.487   1.824 -0.5164 -0.3304 -0.1835
  310SOL    HW1  974   1.899   2.443   1.830  1.2345 -0.2972 -2.1797
  310SOL    HW2  975   1.985   2.527   1.912  0.4416  0.1656 -0.4981
  311SOL     OW  976   0.418   2.806   1.105  0.2570 -0.3046  0.2902
  311SOL    HW1  977   0.512   2.835   1.095 -1.0742 -1.7075 -0.4013
  311SOL    HW2  978   0.443   2.716   1.138 -1.4314 -0.2414 -1.1204
  312SOL     OW  979   1.143   2.136   1.996 -0.2866  0.4768  0.3857
  312SOL    HW1  980   1.122   2.059   1.944  1.3621  0.1332 -0.1263
  312SOL    HW2  981   1.079   2.132   2.074 -2.2731 -1.6588 -0.7527
  313SOL     OW  982   2.551   2.633   2.590  0.2897 -0.0568 -0.0218
  313SOL    HW1  983   2.514   2.543   2.596  0.9447 -0.1920 -2.1633
  313SOL    HW2  984   2.647   2.608   2.579  0.3154 -0.3663 -0.9727
  314SOL     OW  985   0.011   2.856   1.668  0.6624 -0.3281 -0.0452
  314SOL    HW1  986   0.001   2.765   1.635  0.2117  1.9580 -1.1868
  314SOL    HW2  987  -0.079   2.879   1.704  0.7120 -1.0269 -0.2701
  315SOL     OW  988   2.764   1.924   0.807  0.9520 -0.2255  0.0716
  315SOL    HW1  989   2.842   1.880   0.846 -1.1772 -1.5992  0.1264
  315SOL    HW2  990   2.788   2.018   0.787  0.5519  2.3427 -1.0868
  316SOL     OW  991   2.871   1.286   1.857 -0.1151 -0.4457  0.7330
  316SOL    HW1  992   2.793   1.343   1.865 -0.2760  0.5765  0.2369
  316SOL    HW2  993   2.861   1.270   1.759 -0.6080  0.4391  0.0099
  317SOL     OW  994   0.242   2.975   2.402  0.2665  0.2054 -0.6249
  317SOL    HW1  995   0.175   3.003   2.334  1.4933  2.4521 -0.2678
  317SOL    HW2  996   0.224   3.033   2.480  1.4604  0.3095  0.7294
  318SOL     OW  997   1.702   2.539   2.033  0.0949  0.1387  0.3775
  318SOL    HW1  998   1.747   2.619   2.078  1.8600 -0.7862 -0.9554
  318SOL    HW2  999   1.677   2.573   1.942 -3.4664  1.7423  0.7304
  319SOL     OW 1000   0.523   1.939   1.945  0.0083  0.0375  0.4493
  319SOL    HW1 1001   0.561   1.959   1.859  1.9778 -2.5930 -0.7268
  319SOL    HW2 1002   0.450   2.001   1.940  0.7993 -0.6187  0.6718
  320SOL     OW 1003   0.334   1.025   1.324  0.0426 -0.2285 -0.1408
  320SOL    HW1 1004   0.286   1.055   1.238 -0.9447  3.3054 -0.2086
  320SOL    HW2 1005   0.260   1.052   1.383  0.9288 -2.1078  1.7575
  321SOL     OW 1006   0.680   2.316   1.304  0.0555  0.5879 -0.0324
  321SOL    HW1 1007   0.670   2.381   1.230 -0.8511 -1.3597 -2.1149
  321SOL    HW2 1008   0.603   2.257   1.293 -1.1741 -0.1676 -0.7922
  322SOL     OW 1009   1.334   0.413   2.335 -1.3728 -0.4327 -0.2017
  322SOL    HW1 1010   1.417   0.467   2.317 -1.3950 -1.9148 -1.8804
  322SOL    HW2 1011   1.271   0.483   2.316  1.8663 -0.6001  2.4942
  323SOL     OW 1012   1.036   0.799   0.357 -0.2873  0.1593 -0.3337
  323SOL    HW1 1013   0.996   0.805   0.266  0.1393  2.8350  1.0180
  323SOL    HW2 1014   0.969   0.773   0.419 -2.2223 -0.1596 -1.5980
  324SOL     OW 1015   0.489   2.105   1.273 -0.0292 -0.4893 -0.5237
  324SOL    HW1 1016   0.450   2.096   1.362  1.4020 -0.3625  1.2205
  324SOL    HW2 1017   0.401   2.104   1.231 -1.7668 -0.5892 -2.5268
  325SOL     OW 1018   0.576   0.845   0.232  0.7612 -0.1996 -0.3740
  325SOL    HW1 1019   0.565   0.766   0.171 -1.1027  0.3077  1.5749
  325SOL    HW2 1020   0.544   0.918   0.171 -0.9560 -0.1019  3.2801
  326SOL     OW 1021   2.716   0.170   2.286 -0.2346 -0.4088 -0.2817
  326SOL    HW1 1022   2.769   0.232   2.330 -0.4778  0.1057  0.3870
  326SOL    HW2 1023   2.668   0.226   2.218  1.0088  1.9768 -1.4311
  327SOL     OW 1024   0.820   0.132   1.381  0.2420 -0.4398  0.2309
  327SOL    HW1 1025   0.831   0.210   1.434  1.2775  3.7481 -0.0216
  327SOL    HW2 1026   0.780   0.073   1.446 -1.7870  1.5472  0.8254
  328SOL     OW 1027   0.820   2.846   2.660  0.0360  0.2545  0.2107
  328SOL    HW1 1028   0.836   2.895   2.579  2.1741  0.4178 -0.0473
  328SOL    HW2 1029   0.895   2.876   2.713  1.0813  0.2905  0.9305
  329SOL     OW 1030   1.121   2.826   2.662  0.2138  0.1263 -0.1287
  329SOL    HW1 1031   1.082   2.778   2.588  0.9358  1.5420  0.2750
  329SOL    HW2 1032   1.201   2.857   2.620 -2.2994 -1.1598  1.5469
  330SOL     OW 1033   2.279   2.751   2.554 -0.4959 -0.7225  0.0122
  330SOL    HW1 1034   2.339   2.700   2.609 -5.3168 -1.4041 -0.6861
  330SOL    HW2 1035   2.343   2.816   2.518 -1.2822 -2.1584 -0.2170
  331SOL     OW 1036   1.408   0.890   1.231 -1.0459  0.2665 -0.2175
  331SOL    HW1 1037   1.315   0.904   1.248  0.0495  1.5348 -2.4757
  331SOL    HW2 1038   1.423   0.950   1.157 -0.0730 -0.9176  1.3392
  332SOL     OW 1039   0.264   1.722   0.557 -0.2667  0.1874  0.5136
  332SOL    HW1 1040   0.279   1.633   0.515  3.5242  1.1115 -1.1492
  332SOL    HW2 1041   0.310   1.787   0.504  1.1448  0.2128  1.0725
  333SOL     OW 1042   0.555   2.251   1.562  0.4715 -0.0194  0.0257
  333SOL    HW1 1043   0.511   2.313   1.503 -2.6384  0.1036  1.3576
  333SOL    HW2 1044   0.637   2.253   1.509  2.5991 -1.6421  1.7095
  334SOL     OW 1045   2.539   2.099   2.749  0.3010 -0.3370  0.0471
  334SOL    HW1 1046   2.461   2.151   2.726  0.4016 -1.5068 -0.7671
  334SOL    HW2 1047   2.604   2.156   2.707 -0.4275  1.1723 -2.1542
  335SOL     OW 1048   1.028   1.685   1.179  0.2794  0.8199  0.2349
  335SOL    HW1 1049   0.954   1.705   1.231  1.6581  1.6644  0.7933
  335SOL    HW2 1050   1.089   1.750   1.224  1.0258 -0.4437  0.9775
  336SOL     OW 1051   1.520   2.375   0.133 -0.5136  0.3535  0.9793
  336SOL    HW1 1052   1.493   2.441   0.206 -2.7816  1.3405  0.3249
  336SOL    HW2 1053   1.604   2.337   0.170 -0.4882  0.4485  0.9395
  337SOL     OW 1054   2.871   1.248   2.297 -0.1305  0.4997 -0.8545
  337SOL    HW1 1055   2.886   1.316   2.366 -2.6518 -1.8231  2.6136
  337SOL    HW2 1056   2.864   1.168   2.359  0.8370  0.6658  1.7795
  338SOL     OW 1057   0.428   1.447   2.308  0.6265  0.0905  0.1012
  338SOL    HW1 1058   0.377   1.365   2.305  2.5539 -2.3759  0.9338
  338SOL    HW2 1059   0.422   1.499   2.227  4.2759  1.6772  1.4067
  339SOL     OW 1060   0.208   0.718   1.387 -0.1672 -0.9185 -0.2256
  339SOL    HW1 1061   0.243   0.771   1.462  0.8672  2.2481 -2.2087
  339SOL    HW2 1062   0.165   0.646   1.435 -2.8820  3.7137  0.8127
  340SOL     OW 1063   1.247   0.128   2.483  0.4110  0.1028 -0.0273
  340SOL    HW1 1064   1.287   0.188   2.417 -4.3491 -1.5300 -0.2433
  340SOL    HW2 1065   1.301   0.047   2.489  0.8762  1.3949 -0.6751
  341SOL     OW 1066   2.303   1.166   0.484  0.2112 -0.6415  0.6724
  341SOL    HW1 1067   2.220   1.222   0.472  1.1183 -3.7029  1.0696
  341SOL    HW2 1068   2.309   1.167   0.578 -1.1095  0.8809  0.3353
  342SOL     OW 1069   0.703   0.877   2.222  0.1948  0.0575  0.6669
  342SOL    HW1 1070   0.608   0.872   2.249 -0.1194 -2.4817  2.1977
  342SOL    HW2 1071   0.727   0.971   2.237 -0.2477 -0.8422 -0.2166
  343SOL     OW 1072   1.155   0.630   2.230 -0.8805  0.1068 -0.3057
  343SOL    HW1 1073   1.055   0.646   2.214 -1.0390  4.2211 -1.7303
  343SOL    HW2 1074   1.178   0.624   2.132 -1.7440  0.4196  1.5879
  344SOL     OW 1075   2.388   0.040   2.996  0.0654  0.1808 -0.2949
  344SOL    HW1 1076   2.431  -0.033   3.050 -0.2081  1.3992 -0.6178
  344SOL    HW2 1077   2.294   0.025   3.017 -1.3835  0.8597 -1.4839
  345SOL     OW 1078   0.637   1.840   1.179  0.1419  0.0959 -0.0830
  345SOL    HW1 1079   0.571   1.797   1.118 -0.1937 -0.4309 -0.8026
  345SOL    HW2 1080   0.576   1.881   1.236  1.2085 -3.8045  0.1388
  346SOL     OW 1081   2.592   2.379   0.388 -0.6070 -0.1640  0.5472
  346SOL    HW1 1082   2.672   2.376   0.338  1.4180 -1.4927  3.5072
  346SOL    HW2 1083   2.532   2.407   0.323  0.9562 -0.9183 -1.6912
  347SOL     OW 1084   0.071   0.097   1.560 -0.5645  0.8802 -0.0618
  347SOL    HW1 1085   0.063   0.002   1.582  1.0285 -1.3840  0.1049
  347SOL    HW2 1086   0.043   0.131   1.650  0.0349 -1.4407  5.4712
  348SOL     OW 1087   0.318   1.277   2.969  0.0144 -0.0998  0.4395
  348SOL    HW1 1088   0.361   1.363   2.946 -2.2861  1.5995 -0.2575
  348SOL    HW2 1089   0.316   1.227   2.883  1.0500  1.8164  2.7213
  349SOL     OW 1090   0.604   0.050   2.528 -0.0196 -0.3680  0.4194
  349SOL    HW1 1091   0.587  -0.042   2.550  1.4273 -0.4078  0.8909
  349SOL    HW2 1092   0.585   0.093   2.618 -0.5140 -1.1147  0.2104
  350SOL     OW 1093   2.157   2.986   1.115  0.1219 -0.1235 -0.6146
  350SOL    HW1 1094   2.072   2.940   1.118  0.5341  0.2581  2.6272
  350SOL    HW2 1095   2.214   2.924   1.073 -0.0724  0.8077 -1.3811
  351SOL     OW 1096   1.031   2.444   2.145 -0.3525 -0.2432 -0.6859
  351SOL    HW1 1097   1.051   2.445   2.243 -0.6008 -0.1602 -0.5304
  351SOL    HW2 1098   0.950   2.399   2.134 -0.9543 -0.3873  0.1730
  352SOL     OW 1099   0.284   0.423   0.130  0.4074  0.0780  0.1435
  352SOL    HW1 1100   0.292   0.340   0.077  0.4300 -0.4506 -3.4154
  352SOL    HW2 1101   0.291   0.382   0.222  1.5789 -0.9607  0.2554
  353SOL     OW 1102   0.449   1.481   2.814  0.4235  0.5008 -0.0071
  353SOL    HW1 1103   0.381   1.467   2.743 -0.7880  1.2214 -1.4295
  353SOL    HW2 1104   0.534   1.486   2.768  0.9450  2.1672 -0.4270
  354SOL     OW 1105   0.412   0.468   2.847 -0.2252 -0.2016 -0.6409
  354SOL    HW1 1106   0.340   0.506   2.784 -0.0060 -0.2024  1.8896
  354SOL    HW2 1107   0.374   0.450   2.936  1.5724  1.8114  2.3842
  355SOL     OW 1108   0.584   1.405   1.901  0.1312  0.4764 -0.7761
  355SOL    HW1 1109   0.490   1.435   1.914 -2.0826  1.2787  0.2586
  355SOL    HW2 1110   0.594   1.343   1.973  0.5673 -2.8089 -1.8635
  356SOL     OW 1111   0.217   2.514   1.690 -0.6842  0.3575 -0.3085
  356SOL    HW1 1112   0.258   2.426   1.679 -1.0122 -0.7636 -0.7934
  356SOL    HW2 1113   0.262   2.544   1.765  1.0304 -1.8019 -1.2629
  357SOL     OW 1114   1.995   2.223   1.196 -0.5850  0.3872 -0.2604
  357SOL    HW1 1115   1.971   2.143   1.145 -1.3746  0.7391  0.7816
  357SOL    HW2 1116   2.068   2.251   1.139  1.5134  2.5079 -1.7856
  358SOL     OW 1117   1.508   1.913   0.735  0.0613  0.1587  0.5406
  358SOL    HW1 1118   1.428   1.907   0.797 -1.1203  2.6771 -0.0673
  358SOL    HW2 1119   1.458   1.937   0.657  0.9092 -0.0347 -1.7453
  359SOL     OW 1120   2.361   2.589   1.771  0.2634 -0.2530  0.6215
  359SOL    HW1 1121   2.337   2.677   1.797  1.3271 -0.5191 -0.6262
  359SOL    HW2 1122   2.302   2.563   1.702  1.5418 -2.3659 -0.3235
  360SOL     OW 1123   2.196   0.366   1.899  0.4800  0.0271 -0.3329
  360SOL    HW1 1124   2.206   0.370   1.802 -0.2719 -3.1183 -0.5634
  360SOL    HW2 1125   2.200   0.269   1.923  0.8746 -0.5221 -0.2054
  361SOL     OW 1126   0.156   1.270   2.487 -0.2562 -0.4168  1.1449
  361SOL    HW1 1127   0.072   1.307   2.510  3.2961  1.3337 -0.2489
  361SOL    HW2 1128   0.217   1.308   2.548  0.5021 -0.3146 -1.7698
  362SOL     OW 1129   2.961   0.008   1.034 -0.1061 -0.0131  0.2037
  362SOL    HW1 1130   2.982   0.072   1.105  1.7544 -0.6092 -0.8248
  362SOL    HW2 1131   2.953  -0.076   1.085  0.1343 -2.7969  0.6287
  363SOL     OW 1132   0.148   0.555   1.105 -0.1672 -0.3315  0.3667
  363SOL    HW1 1133   0.224   0.495   1.132  1.5948 -2.5097 -2.1037
  363SOL    HW2 1134   0.170   0.636   1.135  0.3267 -0.3506  0.4880
  364SOL     OW 1135   0.935   1.594   2.238 -0.4701 -0.4664 -0.0653
  364SOL    HW1 1136   0.975   1.563   2.156  0.8657 -0.4572 -0.8922
  364SOL    HW2 1137   0.932   1.512   2.284  0.9173  0.2739  1.0121
  365SOL     OW 1138   1.377   2.538   2.414  0.2670 -0.6788  0.5573
  365SOL    HW1 1139   1.375   2.483   2.493 -1.2093  0.0595  1.0386
  365SOL    HW2 1140   1.303   2.508   2.364 -3.1602 -0.1998  0.5056
  366SOL     OW 1141   2.489   2.989   0.477  0.4437  0.0005  0.4543
  366SOL    HW1 1142   2.432   3.033   0.414 -0.4562  2.0200 -1.7083
  366SOL    HW2 1143   2.427   2.971   0.547  3.6582  0.4020  0.0300
  367SOL     OW 1144   0.540   2.221   1.007 -0.3036  0.2428 -0.0832
  367SOL    HW1 1145   0.563   2.310   1.021 -2.5422 -1.0244 -3.3775
  367SOL    HW2 1146   0.480   2.198   1.082 -0.7115  1.3274 -1.8278
  368SOL     OW 1147   2.701   0.562   1.962  0.4051 -0.7889  0.0372
  368SOL    HW1 1148   2.602   0.539   1.960 -2.2615  2.0807 -0.3178
  368SOL    HW2 1149   2.737   0.477   1.940 -0.0433 -0.6230 -0.1401
  369SOL     OW 1150   0.227   1.147   1.106 -0.1847  0.6786 -0.1383
  369SOL    HW1 1151   0.179   1.066   1.074  2.4891  0.1326  0.3036
  369SOL    HW2 1152   0.185   1.224   1.060 -4.0068 -1.1411  0.1082
  370SOL     OW 1153   0.932   2.091   0.312  0.1150  0.4870  0.5015
  370SOL    HW1 1154   0.844   2.093   0.282  2.0849  1.5526  2.3849
  370SOL    HW2 1155   0.935   2.171   0.364  2.3261  2.0157 -0.4408
  371SOL     OW 1156   0.049   1.122   2.854 -0.2529  0.2136 -0.0910
  371SOL    HW1 1157   0.041   1.145   2.946 -0.9252  0.1964 -2.8947
  371SOL    HW2 1158  -0.019   1.054   2.849  3.4020  1.0058  1.0470
  372SOL     OW 1159   0.136   2.733   2.701  0.4146  0.0865 -0.7748
  372SOL    HW1 1160   0.148   2.646   2.749  1.4813 -1.3716 -1.7995
  372SOL    HW2 1161   0.100   2.701   2.617  1.2942 -0.8677  1.2698
  373SOL     OW 1162   1.636   2.500   2.415  0.5543 -0.0036  0.3444
  373SOL    HW1 1163   1.547   2.541   2.394 -1.6210  0.7824  1.6889
  373SOL    HW2 1164   1.645   2.423   2.350 -0.9865 -1.9434 -4.1162
  374SOL     OW 1165   1.595   2.152   0.811 -0.0334 -0.5234 -0.0184
  374SOL    HW1 1166   1.613   2.058   0.788  1.4517  0.7710  0.6214
  374SOL    HW2 1167   1.490   2.144   0.817  0.3955  0.1582 -1.9011
  375SOL     OW 1168   2.059   1.271   0.507 -0.4547  0.2012 -0.2343
  375SOL    HW1 1169   2.092   1.298   0.598  0.4784  1.2276  1.8877
  375SOL    HW2 1170   1.990   1.336   0.489 -1.1929  0.8570  1.7707
  376SOL     OW 1171   1.072   1.835   2.302  0.1113  0.6095  0.0138
  376SOL    HW1 1172   1.017   1.755   2.287 -1.5740  1.4204  3.3864
  376SOL    HW2 1173   1.142   1.809   2.371 -2.8106  2.1265 -3.0918
  377SOL     OW 1174   0.531   2.291   2.776  0.1773 -0.6946 -0.4878
  377SOL    HW1 1175   0.438   2.256   2.788  0.2358 -1.5951  2.8725
  377SOL    HW2 1176   0.567   2.221   2.721 -1.5089 -1.9271  0.1976
  378SOL     OW 1177   2.585   1.710   0.932 -0.5976  0.0606 -0.9658
  378SOL    HW1 1178   2.635   1.776   0.881  0.9079 -2.6121 -0.7439
  378SOL    HW2 1179   2.587   1.757   1.025 -0.4287 -1.7643  1.8514
  379SOL     OW 1180   2.552   0.129   2.024  0.2403  0.8315 -0.1032
  379SOL    HW1 1181   2.470   0.111   2.077  1.5568 -1.1941  1.6372
  379SOL    HW2 1182   2.589   0.038   2.020 -0.6944 -1.3531  2.2204
  380SOL     OW 1183   2.586   2.089   0.452  0.1880  0.0853  1.1359
  380SOL    HW1 1184   2.554   2.167   0.413 -2.1996 -0.7341  0.9073
  380SOL    HW2 1185   2.683   2.114   0.454 -0.5904  2.8400  1.9650
  381SOL     OW 1186   0.390   2.387   2.557 -0.1797 -0.0949 -0.0457
  381SOL    HW1 1187   0.439   2.444   2.491  1.9327 -1.4352 -3.1260
  381SOL    HW2 1188   0.457   2.382   2.630  0.2365 -0.0646 -0.6845
  382SOL     OW 1189   2.526   1.937   1.500  0.0396 -0.4002  0.9733
  382SOL    HW1 1190   2.577   2.008   1.547 -0.1580 -0.5396  1.9554
  382SOL    HW2 1191   2.502   1.887   1.577 -0.2846 -2.5023  1.7685
  383SOL     OW 1192   0.705   2.474   0.518  0.3113 -0.0420  0.4908
  383SOL    HW1 1193   0.708   2.427   0.602 -1.5328  0.1279 -0.5028
  383SOL    HW2 1194   0.633   2.541   0.533 -0.6904 -0.9625 -0.1198
  384SOL     OW 1195   0.156   0.003   0.673  0.1543  0.2038 -0.6422
  384SOL    HW1 1196   0.076   0.035   0.630 -0.0949 -1.0793  0.7647
  384SOL    HW2 1197   0.179   0.081   0.725 -2.0885  0.3852  0.4687
  385SOL     OW 1198   0.078   2.695   2.028 -0.4953  0.3176  0.1037
  385SOL    HW1 1199   0.021   2.621   1.986 -5.0108 -2.0942 -0.6264
  385SOL    HW2 1200   0.017   2.729   2.095 -0.4919 -0.5224 -2.9091
  386SOL     OW 1201   2.219   0.474   2.176 -0.3497  0.3789  0.2363
  386SOL    HW1 1202   2.205   0.452   2.266  2.2615  1.7095  1.3002
  386SOL    HW2 1203   2.129   0.493   2.153 -0.8008 -1.5500  0.3003
  387SOL     OW 1204   1.923   0.554   0.947 -0.4640 -0.6241 -0.0652
  387SOL    HW1 1205   1.972   0.604   1.020 -0.6893 -0.3257  1.6123
  387SOL    HW2 1206   1.981   0.556   0.867  2.7717  0.1379  0.5132
  388SOL     OW 1207   0.077   1.559   1.780 -0.3522 -0.4716  0.1181
  388SOL    HW1 1208   0.065   1.532   1.871 -0.0733  1.2275 -1.7581
  388SOL    HW2 1209   0.085   1.474   1.726  0.5083  2.3174  2.3942
  389SOL     OW 1210   0.608   2.908   0.310 -0.1510 -0.3359 -0.2089
  389SOL    HW1 1211   0.688   2.966   0.316 -0.3552 -0.4936  0.2085
  389SOL    HW2 1212   0.632   2.867   0.390  2.8688  0.4018 -2.9208
  390SOL     OW 1213   0.746   1.445   1.264  0.4854  0.4268  0.2312
  390SOL    HW1 1214   0.814   1.440   1.337  0.1692  1.1319 -0.4616
  390SOL    HW2 1215   0.663   1.454   1.317 -0.1886  0.9266  0.8804
  391SOL     OW 1216   0.190   1.510   2.715  0.4786 -0.2880  0.2127
  391SOL    HW1 1217   0.147   1.578   2.656 -3.0784 -0.3060  1.9572
  391SOL    HW2 1218   0.111   1.460   2.736 -0.8362 -0.8187 -2.8927
  392SOL     OW 1219   0.924   1.897   2.994 -0.3663 -0.3146 -0.0463
  392SOL    HW1 1220   0.994   1.948   3.044 -0.3953  1.7946 -0.0050
  392SOL    HW2 1221   0.842   1.939   3.028  1.5213 -0.8983 -0.5508
  393SOL     OW 1222   1.871   1.870   0.198 -0.9750  0.5624  0.3426
  393SOL    HW1 1223   1.837   1.884   0.102 -1.3066 -1.6082 -4.2183
  393SOL    HW2 1224   1.867   1.959   0.238 -0.7832 -1.8362  1.7493
  394SOL     OW 1225   1.908   0.202   1.531 -0.1127  0.0201  0.2187
  394SOL    HW1 1226   1.816   0.232   1.544  0.2617 -1.6414 -0.0741
  394SOL    HW2 1227   1.920   0.200   1.439 -0.4649  0.5759  2.5512
  395SOL     OW 1228   0.392   0.074   0.465  0.3423 -0.1842  0.3686
  395SOL    HW1 1229   0.329   0.035   0.530 -0.7240 -0.7298  0.1369
  395SOL    HW2 1230   0.444  -0.000   0.441 -0.1749  1.2802 -1.4732
  396SOL     OW 1231   1.011   0.344   0.081  0.1166  0.3881  0.1981
  396SOL    HW1 1232   1.035   0.401   0.007  0.4989  0.9001  0.2963
  396SOL    HW2 1233   0.977   0.265   0.040  0.8915 -0.2823  2.2303
  397SOL     OW 1234   2.582   0.386   2.198  0.1486 -1.0501  0.4091
  397SOL    HW1 1235   2.557   0.385   2.102 -0.2754 -0.4722  0.8850
  397SOL    HW2 1236   2.519   0.315   2.235 -1.3953 -0.5297 -1.4988
  398SOL     OW 1237   1.423   2.500   1.382  0.7870 -0.8821  0.0952
  398SOL    HW1 1238   1.423   2.498   1.480 -1.2811  0.6604  0.0878
  398SOL    HW2 1239   1.322   2.484   1.368 -1.2974 -2.7483 -0.3514
  399SOL     OW 1240   0.221   0.637   0.606 -0.3195 -0.0070 -0.5706
  399SOL    HW1 1241   0.285   0.667   0.542 -0.8612 -1.4333 -0.3072
  399SOL    HW2 1242   0.285   0.625   0.683  0.8858  1.0026  0.1685
  400SOL     OW 1243   0.889   2.628   0.820 -0.1194  0.5743 -0.0916
  400SOL    HW1 1244   0.892   2.695   0.889 -2.8407 -0.7803  1.7278
  400SOL    HW2 1245   0.919   2.681   0.745 -2.9270 -1.2765 -0.6850
  401SOL     OW 1246   2.953   2.448   2.893 -0.5807  0.6698 -0.1289
  401SOL    HW1 1247   2.926   2.356   2.902 -0.5738  1.4279 -2.1740
  401SOL    HW2 1248   3.032   2.433   2.839  0.4799 -0.7565  1.2431
  402SOL     OW 1249   1.272   0.396   1.761  0.4321  0.0008  0.4746
  402SOL    HW1 1250   1.242   0.306   1.746 -1.3521  0.7164 -0.2174
  402SOL    HW2 1251   1.354   0.401   1.708 -3.6620  1.6093  2.1032
  403SOL     OW 1252   2.798   1.797   2.588 -0.2967  0.1032 -0.6158
  403SOL    HW1 1253   2.728   1.788   2.521 -0.6938  0.7015 -0.4191
  403SOL    HW2 1254   2.726   1.805   2.652  0.9281  0.3071 -1.6760
  404SOL     OW 1255   0.371   2.458   1.415  0.1395  0.8673 -0.1910
  404SOL    HW1 1256   0.278   2.474   1.409  2.1471 -1.5523  0.3380
  404SOL    HW2 1257   0.398   2.482   1.321 -2.8154  4.2085 -1.7590
  405SOL     OW 1258   1.737   0.051   2.077 -0.1129 -0.3405 -0.3908
  405SOL    HW1 1259   1.651   0.017   2.044 -4.1580 -0.7150  0.6259
  405SOL    HW2 1260   1.715   0.122   2.137  2.0056  2.6295 -0.9796
  406SOL     OW 1261   0.900   1.855   1.944  0.1852  0.4043  0.0768
  406SOL    HW1 1262   0.820   1.802   1.915 -2.7281 -1.0448  0.0244
  406SOL    HW2 1263   0.891   1.935   1.895 -1.0200 -0.7887  1.1933
  407SOL     OW 1264   1.168   2.596   2.810 -0.0749  0.0843  0.0127
  407SOL    HW1 1265   1.146   2.678   2.768 -1.0308 -0.7259 -0.1167
  407SOL    HW2 1266   1.163   2.631   2.905 -0.3134  2.8563 -1.3253
  408SOL     OW 1267   1.593   2.281   1.899  0.0605  0.6938  0.5967
  408SOL    HW1 1268   1.554   2.363   1.874  2.3037 -0.3806 -1.1030
  408SOL    HW2 1269   1.528   2.244   1.967  0.8246 -0.0816  0.6979
  409SOL     OW 1270   0.321   1.133   2.721  0.0651  0.0023 -0.4739
  409SOL    HW1 1271   0.329   1.124   2.626 -1.5909 -1.4720 -1.0966
  409SOL    HW2 1272   0.223   1.111   2.733  0.7585  0.8107 -0.3230
  410SOL     OW 1273   0.234   0.540   1.754  0.2535  0.0402 -0.7295
  410SOL    HW1 1274   0.194   0.463   1.793  1.5510  2.1369  0.8123
  410SOL    HW2 1275   0.235   0.513   1.660 -1.0803 -0.4232 -0.3494
  411SOL     OW 1276   2.418   2.627   0.642 -0.3241  0.1251  0.3760
  411SOL    HW1 1277   2.485   2.660   0.585 -0.1975 -0.8076 -0.6652
  411SOL    HW2 1278   2.456   2.534   0.633 -0.2797 -0.5438 -0.6170
  412SOL     OW 1279   1.903   1.286   2.570 -0.3511 -0.5202  0.0081
  412SOL    HW1 1280   1.920   1.240   2.485  0.1884  0.1727  1.1521
  412SOL    HW2 1281   1.969   1.248   2.631  0.2289 -0.7839  1.8061
  413SOL     OW 1282   2.947   1.967   1.387 -0.1352 -0.4439 -0.2166
  413SOL    HW1 1283   2.970   2.059   1.407  2.6438  0.0121  0.6425
  413SOL    HW2 1284   2.888   1.973   1.307  1.4773  1.9996 -1.6227
  414SOL     OW 1285   1.066   2.173   2.881 -0.3390 -0.0560 -0.0214
  414SOL    HW1 1286   1.074   2.101   2.820 -0.7842  0.8233  2.4831
  414SOL    HW2 1287   1.152   2.175   2.924 -1.7719 -1.6391  1.9148
  415SOL     OW 1288   0.912   2.434   1.417 -0.3139 -0.3122  0.0762
  415SOL    HW1 1289   0.884   2.525   1.414 -1.0917  0.5141 -0.4181
  415SOL    HW2 1290   0.836   2.397   1.367  0.6832 -0.5928  1.3873
  416SOL     OW 1291   1.169   0.997   1.221  0.0939 -0.2988 -0.2782
  416SOL    HW1 1292   1.120   1.011   1.303 -0.3607  1.0265 -3.4852
  416SOL    HW2 1293   1.141   1.074   1.164 -1.6561  0.6146 -0.3359
  417SOL     OW 1294   2.746   2.205   2.345 -0.9417 -0.0982  0.6378
  417SOL    HW1 1295   2.687   2.267   2.387  3.1912  0.6731  1.5067
  417SOL    HW2 1296   2.777   2.154   2.424  1.1688 -1.1989 -0.8044
  418SOL     OW 1297   2.693   2.072   1.696  0.3609  0.4808 -0.4408
  418SOL    HW1 1298   2.788   2.076   1.695 -1.0752 -3.0391 -0.5788
  418SOL    HW2 1299   2.680   1.995   1.753  0.3791 -2.4554 -1.8466
  419SOL     OW 1300   2.071   1.776   0.040  0.4098  0.0976  0.2229
  419SOL    HW1 1301   2.040   1.683   0.010 -2.2473 -1.7091  2.5436
  419SOL    HW2 1302   1.995   1.802   0.090  1.6322 -3.0907 -2.9641
  420SOL     OW 1303   2.452   0.489   1.990 -0.0565 -0.4847 -0.7227
  420SOL    HW1 1304   2.367   0.468   2.036  1.8452  0.1378  1.5047
  420SOL    HW2 1305   2.436   0.459   1.898  1.7921 -0.2169 -2.5700
  421SOL     OW 1306   2.656   2.634   1.487 -0.1787  0.1604 -0.7774
  421SOL    HW1 1307   2.706   2.566   1.450  0.5086  0.8527  1.9494
  421SOL    HW2 1308   2.687   2.625   1.580 -0.6733 -1.6945  2.5195
  422SOL     OW 1309   0.549   1.983   0.895 -0.6747 -0.4806 -0.5001
  422SOL    HW1 1310   0.486   1.915   0.923  1.6743 -1.5234 -2.4890
  422SOL    HW2 1311   0.538   2.065   0.951  0.3308 -2.6487 -2.8355
  423SOL     OW 1312   1.276   2.824   0.789 -0.3803  0.1475  0.2134
  423SOL    HW1 1313   1.285   2.803   0.883 -1.2589 -1.7814 -1.8307
  423SOL    HW2 1314   1.196   2.770   0.761 -3.8338 -1.0660  2.2740
  424SOL     OW 1315   2.101   1.174   2.683 -0.1460  0.4508 -0.6809
  424SOL    HW1 1316   2.152   1.239   2.737 -1.8206  2.5623 -1.0200
  424SOL    HW2 1317   2.182   1.128   2.646 -0.1487 -0.7466 -0.7154
  425SOL     OW 1318   2.857   2.112   0.498  0.4610  0.2085 -0.4286
  425SOL    HW1 1319   2.874   2.145   0.591 -1.4993 -0.1577  1.1684
  425SOL    HW2 1320   2.894   2.027   0.522 -2.1740  3.5766 -0.8649
  426SOL     OW 1321   2.529   2.922   1.075 -0.3406 -0.7428  0.0934
  426SOL    HW1 1322   2.583   2.986   1.123 -0.4714  2.4357 -0.1515
  426SOL    HW2 1323   2.564   2.927   0.982 -0.1555  0.5038  2.5497
  427SOL     OW 1324   2.533   2.352   2.539  0.7264 -0.1714 -0.4413
  427SOL    HW1 1325   2.467   2.291   2.567  0.4810  1.4589 -1.4662
  427SOL    HW2 1326   2.487   2.378   2.464 -2.4814  2.6411  0.9344
  428SOL     OW 1327   0.922   1.156   0.452 -0.2366  0.4356 -0.2180
  428SOL    HW1 1328   1.007   1.102   0.438  1.5378 -1.4884  0.4983
  428SOL    HW2 1329   0.853   1.109   0.393  2.5015 -0.4529  2.4965
  429SOL     OW 1330   2.171   0.822   2.690 -0.0873  0.2552 -0.0422
  429SOL    HW1 1331   2.262   0.803   2.689 -0.3208  1.7811 -2.2487
  429SOL    HW2 1332   2.154   0.869   2.776  2.6596  2.2363  1.1698
  430SOL     OW 1333   2.300   1.645   0.200 -0.3729  0.1881  0.0912
  430SOL    HW1 1334   2.217   1.656   0.148 -1.3488  0.1264  1.7799
  430SOL    HW2 1335   2.266   1.652   0.295  2.3506  0.3562  0.9789
  431SOL     OW 1336   0.505   0.705   1.692 -0.0397  0.0207 -0.2813
  431SOL    HW1 1337   0.543   0.743   1.773 -0.1949  1.9976  0.5357
  431SOL    HW2 1338   0.433   0.652   1.721  0.5567 -0.2011  0.7190
  432SOL     OW 1339   0.690   1.222   2.831  0.0567 -0.2347 -0.1051
  432SOL    HW1 1340   0.703   1.297   2.767  0.7676 -3.2421 -1.8940
  432SOL    HW2 1341   0.667   1.277   2.911 -2.5465 -1.2646 -0.2155
  433SOL     OW 1342   2.131   0.544   2.593 -0.4694  0.2880 -0.1142
  433SOL    HW1 1343   2.179   0.612   2.636 -0.6947  0.9492  1.6310
  433SOL    HW2 1344   2.200   0.476   2.579  0.7955  0.1178 -1.1790
  434SOL     OW 1345   0.383   0.743   0.402  0.2169 -0.3421 -0.3678
  434SOL    HW1 1346   0.392   0.652   0.374 -0.2634 -1.2444 -0.0228
  434SOL    HW2 1347   0.464   0.782   0.362 -2.4561 -1.8547  0.6533
  435SOL     OW 1348   1.862   0.080   0.042  0.7940 -0.6363  0.2525
  435SOL    HW1 1349   1.788   0.015   0.028 -2.0523 -2.3151 -1.7703
  435SOL    HW2 1350   1.829   0.132   0.119  0.4636  1.5632  0.3553
  436SOL     OW 1351   1.923   1.768   0.942 -0.9013  0.0378 -0.6932
  436SOL    HW1 1352   1.883   1.792   1.024 -0.0704  0.0096 -0.7264
  436SOL    HW2 1353   1.856   1.789   0.878 -1.7724 -0.0394  0.5823
  437SOL     OW 1354   0.858   0.640   1.965  0.2809  0.2813  0.2870
  437SOL    HW1 1355   0.866   0.593   2.051  0.0421  0.9502  0.4472
  437SOL    HW2 1356   0.816   0.576   1.906  1.5195 -3.0519  2.9465
  438SOL     OW 1357   1.569   1.237   1.984 -0.2836 -0.3366 -0.1108
  438SOL    HW1 1358   1.597   1.167   2.053  0.0811  0.4218  1.0419
  438SOL    HW2 1359   1.509   1.178   1.929 -0.6368 -0.9141 -0.3799
  439SOL     OW 1360   0.877   0.000   0.808 -0.5998 -0.0364 -0.2973
  439SOL    HW1 1361   0.902  -0.072   0.877  1.6834 -2.1181  2.5127
  439SOL    HW2 1362   0.904  -0.066   0.737  0.6970  0.6005 -1.4815
  440SOL     OW 1363   2.413   1.079   1.460  0.0464  0.0556  0.1060
  440SOL    HW1 1364   2.465   1.064   1.382 -2.1340 -1.2595  3.4811
  440SOL    HW2 1365   2.339   1.122   1.419 -0.8055  3.8143  2.3650
  441SOL     OW 1366   1.196   1.826   0.823  0.3829  0.1690  0.7009
  441SOL    HW1 1367   1.208   1.899   0.764  0.8741  2.7702 -0.3946
  441SOL    HW2 1368   1.100   1.807   0.823 -1.0903 -2.3963  1.1162
  442SOL     OW 1369   0.824   1.732   1.351 -0.6123  0.1422  0.8730
  442SOL    HW1 1370   0.775   1.687   1.420  1.4759 -1.6528  0.0636
  442SOL    HW2 1371   0.745   1.750   1.296 -1.1591 -1.0167 -1.9056
  443SOL     OW 1372   0.095   2.218   0.027  0.4947 -0.1135  0.4507
  443SOL    HW1 1373   0.150   2.298   0.038  0.1377 -1.7842  0.1209
  443SOL    HW2 1374   0.083   2.188   0.119 -0.9580 -2.0258  0.7076
  444SOL     OW 1375   0.717   1.682   0.777  0.3262 -0.1216 -0.1417
  444SOL    HW1 1376   0.790   1.741   0.802 -0.3310  1.9901 -2.5987
  444SOL    HW2 1377   0.723   1.624   0.852  0.9927  0.3804 -0.0701
  445SOL     OW 1378   0.989   2.392   0.783 -0.4599  0.2084  0.4442
  445SOL    HW1 1379   1.073   2.431   0.765 -0.0914 -0.9012  0.4460
  445SOL    HW2 1380   0.954   2.480   0.799  0.3391 -0.2525 -2.0152
  446SOL     OW 1381   0.941   1.436   1.507  0.2379 -0.2913  0.2981
  446SOL    HW1 1382   1.034   1.480   1.511 -0.0570 -0.6879 -0.3751
  446SOL    HW2 1383   0.892   1.495   1.563  1.6617 -2.6583  0.4564
  447SOL     OW 1384   2.131   0.952   2.427  0.2637 -0.1174  0.6308
  447SOL    HW1 1385   2.203   1.007   2.380 -0.8081  0.9157 -0.7130
  447SOL    HW2 1386   2.174   0.903   2.490 -0.9721  1.5487 -0.2613
  448SOL     OW 1387   2.260   0.482   1.429 -0.1934  0.1202  0.1023
  448SOL    HW1 1388   2.310   0.568   1.434  0.4148 -0.7533 -0.9453
  448SOL    HW2 1389   2.174   0.502   1.390 -0.2603 -0.2120  0.5366
  449SOL     OW 1390   1.905   0.972   1.405  0.2103 -0.2626  0.1752
  449SOL    HW1 1391   1.802   0.947   1.393 -2.7627 -0.5016 -2.1087
  449SOL    HW2 1392   1.923   0.980   1.499  1.5622  1.4818 -1.3484
  450SOL     OW 1393   1.078   1.416   1.064  0.2625 -0.3767 -0.0382
  450SOL    HW1 1394   1.046   1.505   1.099 -0.3320  0.2768 -2.6177
  450SOL    HW2 1395   1.016   1.353   1.107  0.8771 -0.0289 -0.2782
  451SOL     OW 1396   1.893   2.844   1.046 -0.1317 -0.2763  0.5767
  451SOL    HW1 1397   1.945   2.819   0.970 -0.8420  1.8304 -2.2811
  451SOL    HW2 1398   1.893   2.761   1.099  0.1123 -0.0883  0.1715
  452SOL     OW 1399   0.997   1.516   1.973 -0.5420 -0.0498  0.1283
  452SOL    HW1 1400   0.915   1.458   1.980 -0.0576  0.8753 -2.3371
  452SOL    HW2 1401   1.044   1.470   1.905  0.4617  0.1435 -0.4341
  453SOL     OW 1402   1.596   0.737   0.045  0.0536  0.2240 -0.2200
  453SOL    HW1 1403   1.662   0.709  -0.013 -3.2819 -1.0852  1.7490
  453SOL    HW2 1404   1.515   0.708  -0.003  2.4799  0.2435 -0.4652
  454SOL     OW 1405   2.136   1.089   1.305 -0.0109  0.8561  0.2534
  454SOL    HW1 1406   2.063   1.032   1.326  0.4441  1.6261  1.7810
  454SOL    HW2 1407   2.076   1.157   1.270 -0.3049 -1.8658  0.4075
  455SOL     OW 1408   0.963   1.889   2.562 -0.2250 -0.2583  0.6336
  455SOL    HW1 1409   0.926   1.962   2.508 -2.2229 -0.4257 -1.2099
  455SOL    HW2 1410   0.977   1.827   2.492 -0.9711 -0.3729 -1.6586
  456SOL     OW 1411   2.773   0.420   0.674 -0.1079  0.3845 -0.1182
  456SOL    HW1 1412   2.690   0.457   0.640  0.2292 -0.7285  1.0024
  456SOL    HW2 1413   2.837   0.483   0.638 -2.7466  0.1198  0.1366
  457SOL     OW 1414   0.390   0.600   0.795  0.2795  0.4618  0.1281
  457SOL    HW1 1415   0.376   0.600   0.888 -1.3259 -1.6431 -1.2197
  457SOL    HW2 1416   0.482   0.632   0.795 -2.9498 -1.0210 -0.8166
  458SOL     OW 1417   2.743   1.833   1.822  0.3470  0.8098  0.4245
  458SOL    HW1 1418   2.824   1.821   1.771  0.9617  1.0338  1.1623
  458SOL    HW2 1419   2.750   1.749   1.868 -0.8079  1.7640  2.2627
  459SOL     OW 1420   0.717   1.016   1.573  0.6822 -0.0870 -0.1112
  459SOL    HW1 1421   0.656   1.053   1.632 -1.0169  0.3360 -2.1112
  459SOL    HW2 1422   0.799   1.073   1.587 -1.6607  0.1452  0.9610
  460SOL     OW 1423   1.675   1.193   1.666  0.1972  0.0406 -0.3132
  460SOL    HW1 1424   1.671   1.252   1.743  1.8617  0.2538  0.5054
  460SOL    HW2 1425   1.759   1.149   1.680  1.1373 -0.3760 -1.3618
  461SOL     OW 1426   1.406   2.723   0.561 -0.4121  0.6330  0.2801
  461SOL    HW1 1427   1.330   2.765   0.513  2.6917 -3.0999 -0.9493
  461SOL    HW2 1428   1.418   2.783   0.635  2.1193 -0.2289 -1.2402
  462SOL     OW 1429   1.901   1.071   1.726 -0.4818  0.2014  0.5288
  462SOL    HW1 1430   1.904   0.975   1.706 -2.2134  2.4588 -2.2231
  462SOL    HW2 1431   1.983   1.081   1.770  1.2664 -1.1193 -2.0047
  463SOL     OW 1432   2.630   0.098   1.535  0.2323 -0.4383 -0.5186
  463SOL    HW1 1433   2.664   0.022   1.481  0.6664 -2.8374 -1.0999
  463SOL    HW2 1434   2.684   0.169   1.488  1.9473 -0.1732 -2.7823
  464SOL     OW 1435   1.186   2.037   1.052 -0.2271 -0.0143 -0.4454
  464SOL    HW1 1436   1.143   1.995   1.124 -1.3402 -0.3881 -0.7259
  464SOL    HW2 1437   1.147   1.974   0.981  0.4837  1.2111 -2.4188
  465SOL     OW 1438   1.033   0.648   2.734 -0.0321  0.1068  0.3450
  465SOL    HW1 1439   1.135   0.658   2.745  2.2963 -1.7187 -0.5890
  465SOL    HW2 1440   1.008   0.737   2.768  0.7809 -1.1130 -1.2182
  466SOL     OW 1441   1.835   2.238   0.056 -0.2685 -0.4759  0.2701
  466SOL    HW1 1442   1.860   2.189  -0.023  0.4083 -0.6003 -0.4327
  466SOL    HW2 1443   1.892   2.321   0.044 -3.6000  1.2839  1.6167
  467SOL     OW 1444   1.132   1.986   0.165 -0.3331 -0.7051  0.0912
  467SOL    HW1 1445   1.069   2.018   0.234 -0.1406  2.1018 -1.2860
  467SOL    HW2 1446   1.192   2.067   0.163  1.7874 -0.4596 -0.0836
  468SOL     OW 1447   0.961   0.347   2.359  0.1510  0.3872  0.2164
  468SOL    HW1 1448   0.961   0.426   2.418 -0.4486  1.2381 -0.7290
  468SOL    HW2 1449   0.882   0.373   2.312  0.6062 -2.3523 -0.4302
  469SOL     OW 1450   2.049   0.543   2.871  0.0361 -0.1904  0.2202
  469SOL    HW1 1451   2.009   0.475   2.925 -0.7490  0.7995  1.4556
  469SOL    HW2 1452   2.035   0.506   2.787  0.5259 -1.4649 -0.0317
  470SOL     OW 1453   1.806   1.321   2.996 -0.3283  0.5201 -0.0019
  470SOL    HW1 1454   1.729   1.321   3.056 -1.4520  1.1774  0.6568
  470SOL    HW2 1455   1.818   1.227   2.967  0.0294 -2.0852  1.0190
  471SOL     OW 1456   0.728   0.427   2.980 -0.5844 -0.2271 -0.1970
  471SOL    HW1 1457   0.721   0.329   2.987  0.9353  0.4516 -2.1889
  471SOL    HW2 1458   0.807   0.427   2.925 -0.8550  0.7639  2.8204
  472SOL     OW 1459   1.892   2.686   0.369  0.4001 -0.2794 -0.4501
  472SOL    HW1 1460   1.810   2.735   0.396  3.7773  0.0130  1.3392
  472SOL    HW2 1461   1.923   2.670   0.460 -1.4560 -0.8055 -1.0055
  473SOL     OW 1462   1.341   1.409   2.052 -0.2287  0.0569 -0.0994
  473SOL    HW1 1463   1.399   1.351   1.998  1.2189  0.8000  1.1964
  473SOL    HW2 1464   1.259   1.395   2.008  0.4153 -0.7610  0.1862
  474SOL     OW 1465   2.487   2.267   0.128 -0.3747 -0.2148  0.4454
  474SOL    HW1 1466   2.581   2.236   0.118  0.7269  0.4982  2.2122
  474SOL    HW2 1467   2.475   2.344   0.066 -2.0210 -0.6335  0.9786
  475SOL     OW 1468   1.792   2.156   0.298 -0.1970 -0.2173  0.8223
  475SOL    HW1 1469   1.884   2.188   0.329  1.7203  1.5655  0.8566
  475SOL    HW2 1470   1.794   2.205   0.211  3.5462  1.4129  0.1276
  476SOL     OW 1471   1.255   2.815   1.853  0.5895 -0.3277 -0.0148
  476SOL    HW1 1472   1.156   2.841   1.852 -1.1705  2.0165 -0.1206
  476SOL    HW2 1473   1.256   2.724   1.896  0.2787 -3.3551 -0.2670
  477SOL     OW 1474   1.493   0.539   0.302 -0.0927 -0.1960  0.1526
  477SOL    HW1 1475   1.401   0.529   0.316 -2.2002  1.7555  4.4374
  477SOL    HW2 1476   1.496   0.503   0.210  0.0736  0.4960  0.5232
  478SOL     OW 1477   2.072   0.156   0.762 -0.3577 -0.0692 -0.3729
  478SOL    HW1 1478   1.990   0.209   0.749 -0.5168  2.5549  0.6037
  478SOL    HW2 1479   2.094   0.194   0.851 -2.1731  4.1739  1.8444
  479SOL     OW 1480   2.525   0.619   1.663  0.2767 -0.3289 -0.3123
  479SOL    HW1 1481   2.584   0.675   1.714  1.1356  3.5551 -0.7584
  479SOL    HW2 1482   2.576   0.539   1.665 -0.1651  2.7917  0.1944
  480SOL     OW 1483   2.570   1.278   0.407 -0.2807  0.2631 -0.3287
  480SOL    HW1 1484   2.627   1.200   0.428 -0.0567  1.7721 -0.5965
  480SOL    HW2 1485   2.499   1.240   0.462 -3.0554 -0.2005  0.0054
  481SOL     OW 1486   1.517   2.793   2.349  0.2684 -0.2838  0.6334
  481SOL    HW1 1487   1.471   2.711   2.318  0.6171  0.4772 -1.4236
  481SOL    HW2 1488   1.595   2.753   2.385  0.7110 -0.3216  0.0421
  482SOL     OW 1489   0.757   1.169   0.684 -0.4498  0.1589 -0.3120
  482SOL    HW1 1490   0.793   1.185   0.594  0.1138 -1.8230  0.3938
  482SOL    HW2 1491   0.831   1.208   0.742 -3.2765  1.3486 -0.0867
  483SOL     OW 1492   1.815   2.776   2.940  0.9189 -0.6235  1.3633
  483SOL    HW1 1493   1.750   2.837   2.979 -1.3711  2.4104 -0.0973
  483SOL    HW2 1494   1.759   2.709   2.904  3.0571  0.5433  2.7820
  484SOL     OW 1495   1.655   0.563   1.436  0.6946  0.7659 -0.5477
  484SOL    HW1 1496   1.749   0.580   1.447  1.4031  0.7019  0.9913
  484SOL    HW2 1497   1.637   0.469   1.467  3.1859  1.6386 -0.7806
  485SOL     OW 1498   2.313   1.648   0.855 -0.3979  0.2421  0.1415
  485SOL    HW1 1499   2.273   1.700   0.930 -2.4307  1.3515 -0.5861
  485SOL    HW2 1500   2.400   1.652   0.882  3.3909  0.0319  5.9135
  486SOL     OW 1501   2.704   0.001   2.993 -0.6583  0.3188  0.2724
  486SOL    HW1 1502   2.651  -0.030   3.067 -1.1744 -1.8499  0.4079
  486SOL    HW2 1503   2.669  -0.047   2.917  1.1624  1.7144 -0.1630
  487SOL     OW 1504   2.048   2.117   2.627 -0.4451  0.3957 -0.8737
  487SOL    HW1 1505   2.026   2.200   2.674  2.3929 -2.0613 -1.9759
  487SOL    HW2 1506   2.006   2.136   2.537 -0.8911 -0.2970  1.4034
  488SOL     OW 1507   0.250   1.494   1.439 -0.2476 -0.1375  0.0738
  488SOL    HW1 1508   0.198   1.574   1.415  0.3575  0.1821 -0.5376
  488SOL    HW2 1509   0.186   1.449   1.494 -2.5637 -4.7940  0.1700
  489SOL     OW 1510   2.841   0.604   0.360  0.1233  0.2933  0.2541
  489SOL    HW1 1511   2.757   0.561   0.320 -1.8209  0.0810  1.1276
  489SOL    HW2 1512   2.902   0.595   0.286  0.1504 -3.8281 -1.1108
  490SOL     OW 1513   2.417   0.257   1.341 -0.1832  0.2759 -0.8694
  490SOL    HW1 1514   2.454   0.296   1.260  1.3617 -0.2202  0.8030
  490SOL    HW2 1515   2.374   0.339   1.376  0.4160 -0.2370  1.0160
  491SOL     OW 1516   1.686   1.316   0.243 -0.7828  0.1824  0.2642
  491SOL    HW1 1517   1.702   1.256   0.322 -2.3898  0.2944  1.3916
  491SOL    HW2 1518   1.739   1.396   0.263 -1.1491  0.5307  1.9964
  492SOL     OW 1519   2.057   2.941   1.627  0.1679  0.4903  0.0950
  492SOL    HW1 1520   2.118   2.868   1.646 -1.1437  2.1155  1.9690
  492SOL    HW2 1521   2.094   2.982   1.551  0.4669 -0.6086 -1.1587
  493SOL     OW 1522   0.128   2.990   2.771  0.2608  0.3474 -0.1677
  493SOL    HW1 1523   0.082   2.959   2.852 -0.2886  0.0963 -1.8189
  493SOL    HW2 1524   0.149   2.904   2.732  0.4562 -2.8501 -0.3712
  494SOL     OW 1525   2.165   2.979   1.389  0.0945  0.0997  0.5146
  494SOL    HW1 1526   2.262   2.952   1.399 -1.1735 -0.9376 -0.1017
  494SOL    HW2 1527   2.154   2.997   1.297  1.5697  0.4667  2.1006
  495SOL     OW 1528   1.632   1.007   2.127  0.3092  0.2190 -0.3932
  495SOL    HW1 1529   1.629   0.982   2.221 -3.1708 -2.5529  2.9917
  495SOL    HW2 1530   1.708   0.950   2.102 -0.4127  1.3971  1.3180
  496SOL     OW 1531   1.109   1.435   2.540 -0.1362  0.4327  0.0179
  496SOL    HW1 1532   1.043   1.393   2.479 -0.5943 -1.1447  1.8534
  496SOL    HW2 1533   1.187   1.379   2.519  0.9263 -2.4726  0.9584
  497SOL     OW 1534   2.152   0.782   1.308  0.8203 -0.1057  0.6865
  497SOL    HW1 1535   2.155   0.878   1.330 -0.0751 -1.5162  4.1015
  497SOL    HW2 1536   2.228   0.753   1.356 -2.1213  0.4198 -0.3858
  498SOL     OW 1537   1.411   2.205   2.777  0.8615 -0.0745  0.3567
  498SOL    HW1 1538   1.385   2.150   2.854  2.0890  2.8735  2.7577
  498SOL    HW2 1539   1.506   2.194   2.772  0.6026 -1.0918  0.5878
  499SOL     OW 1540   2.536   0.511   0.576 -0.2290 -0.1267 -0.3236
  499SOL    HW1 1541   2.501   0.483   0.660 -0.0637 -1.7310  2.4603
  499SOL    HW2 1542   2.478   0.463   0.507 -2.0848  2.9019 -0.6657
  500SOL     OW 1543   0.216   1.654   0.243  0.4907 -0.2175  0.4638
  500SOL    HW1 1544   0.253   1.638   0.156  1.7551 -0.4515  0.8688
  500SOL    HW2 1545   0.254   1.580   0.291  2.4984  2.4642 -3.0322
  501SOL     OW 1546   1.487   1.064   1.031  0.2115  0.1635  0.2346
  501SOL    HW1 1547   1.421   1.132   1.003  1.6644  0.5654  1.5391
  501SOL    HW2 1548   1.528   1.045   0.946  3.6355 -0.8158 -0.7107
  502SOL     OW 1549   0.267   0.565   2.622  0.4218  0.4360  0.3362
  502SOL    HW1 1550   0.312   0.500   2.565  1.0386 -0.6754 -0.5011
  502SOL    HW2 1551   0.207   0.607   2.561 -0.9363 -1.7004  0.6306
  503SOL     OW 1552   1.184   1.267   0.662  0.5798 -0.4809  1.1795
  503SOL    HW1 1553   1.097   1.259   0.705 -1.1841  0.5458  2.3652
  503SOL    HW2 1554   1.145   1.293   0.579 -1.7425  0.5053 -0.5606
  504SOL     OW 1555   1.409   2.200   2.060 -0.4252 -0.3659 -0.2088
  504SOL    HW1 1556   1.363   2.211   2.147 -1.6555 -1.3601 -0.1688
  504SOL    HW2 1557   1.333   2.204   2.005  5.9320  0.1378  1.0270
  505SOL     OW 1558   2.844   0.843   2.650 -0.0872 -0.3006 -0.0622
  505SOL    HW1 1559   2.767   0.803   2.690 -1.8150  1.2687 -1.5695
  505SOL    HW2 1560   2.891   0.762   2.626  1.2748 -0.8095  1.8364
  506SOL     OW 1561   2.048   2.413   1.372 -0.3561 -0.3810  0.2823
  506SOL    HW1 1562   2.025   2.349   1.307  2.9532  1.4420 -1.8111
  506SOL    HW2 1563   1.974   2.428   1.430  0.8780 -0.4434  2.4782
  507SOL     OW 1564   2.828   2.560   2.644 -0.2594  0.3385  0.0098
  507SOL    HW1 1565   2.887   2.504   2.583 -0.8837  1.8737  1.1944
  507SOL    HW2 1566   2.834   2.523   2.736 -1.1474 -0.7856 -1.8203
  508SOL     OW 1567   0.027   2.265   1.440 -0.1331 -0.4895 -0.3833
  508SOL    HW1 1568   0.087   2.343   1.469 -0.2960 -0.5305  0.2031
  508SOL    HW2 1569  -0.041   2.320   1.398 -1.3832 -1.4280 -0.9629
  509SOL     OW 1570   2.966   0.589   0.914 -0.1432  0.3932 -0.8740
  509SOL    HW1 1571   3.025   0.571   0.994 -2.3026 -0.0993 -3.7948
  509SOL    HW2 1572   3.003   0.534   0.841 -0.5505  0.2340  1.3427
  510SOL     OW 1573   0.007   0.309   2.874  0.7051 -0.1175 -0.2481
  510SOL    HW1 1574   0.075   0.322   2.944  2.3577  0.0149 -0.0998
  510SOL    HW2 1575  -0.072   0.278   2.926  0.1683  0.9537 -0.5859
  511SOL     OW 1576   0.866   2.980   2.437 -0.3134 -0.1301  0.6807
  511SOL    HW1 1577   0.907   3.055   2.480 -1.3781  2.2678  0.9944
  511SOL    HW2 1578   0.776   3.018   2.437 -1.4532 -1.8553 -2.1183
  512SOL     OW 1579   1.195   1.117   2.350  0.6500 -0.2741 -0.0913
  512SOL    HW1 1580   1.224   1.027   2.319 -0.1047 -3.9366 -2.4113
  512SOL    HW2 1581   1.125   1.070   2.408 -1.3766  1.1736  1.7547
  513SOL     OW 1582   1.014   0.009   2.832 -0.7337  0.6569  0.0854
  513SOL    HW1 1583   1.007   0.092   2.777 -0.0061  1.8048 -2.0736
  513SOL    HW2 1584   1.060  -0.056   2.771  1.3342 -1.6583  0.8661
  514SOL     OW 1585   1.329   1.903   2.666  0.0391  0.5838  0.6246
  514SOL    HW1 1586   1.308   1.839   2.599 -1.3844  0.1474  1.3911
  514SOL    HW2 1587   1.240   1.923   2.698 -2.0670  0.4561 -2.6183
  515SOL     OW 1588   2.630   1.423   1.880 -0.6419  0.3537  0.1311
  515SOL    HW1 1589   2.600   1.468   1.797 -1.0500 -1.0802  0.4037
  515SOL    HW2 1590   2.629   1.496   1.947  0.6242  2.1851 -0.3232
  516SOL     OW 1591   1.538   0.547   2.265 -0.2846 -0.0426 -0.1698
  516SOL    HW1 1592   1.547   0.615   2.331  2.6987 -0.2222 -0.1930
  516SOL    HW2 1593   1.633   0.532   2.230  0.0053 -0.1342  0.5033
  517SOL     OW 1594   2.916   1.002   1.509 -0.3547 -0.4051  0.5206
  517SOL    HW1 1595   2.907   0.908   1.554  1.5402 -0.5034  2.9487
  517SOL    HW2 1596   2.906   0.984   1.413  0.5823  0.1178 -3.9451
  518SOL     OW 1597   0.210   2.483   2.803  0.6560 -0.6497 -0.3533
  518SOL    HW1 1598   0.274   2.469   2.869  1.4716 -1.5084  2.0333
  518SOL    HW2 1599   0.252   2.428   2.738 -0.5760 -1.6199  0.3837
  519SOL     OW 1600   1.094   2.660   1.096  0.1844 -0.1903  0.0681
  519SOL    HW1 1601   1.189   2.691   1.088 -0.1763 -0.0084 -1.6514
  519SOL    HW2 1602   1.087   2.564   1.105  1.0249  1.6928 -0.4725
  520SOL     OW 1603   1.463   0.118   2.940 -0.2493  0.2077  0.5203
  520SOL    HW1 1604   1.382   0.119   2.880  0.6554  1.2707 -1.2621
  520SOL    HW2 1605   1.524   0.161   2.878 -0.3920  0.7984  0.6874
  521SOL     OW 1606   2.364   0.949   1.692  0.3000 -0.6963  0.8659
  521SOL    HW1 1607   2.403   0.999   1.617  0.9632  1.7215  2.6835
  521SOL    HW2 1608   2.447   0.927   1.746 -0.5039 -0.6415  2.9653
  522SOL     OW 1609   1.789   1.753   2.694 -0.3788  0.7501  0.1929
  522SOL    HW1 1610   1.727   1.701   2.747  2.0899  0.4830  1.3684
  522SOL    HW2 1611   1.864   1.704   2.721  0.2775  0.6887  2.3976
  523SOL     OW 1612   0.571   2.638   1.505  0.5921  0.4128  0.4783
  523SOL    HW1 1613   0.541   2.655   1.601 -1.2370 -2.0836  0.0569
  523SOL    HW2 1614   0.526   2.561   1.466  0.9803  0.6051 -0.0163
  524SOL     OW 1615   2.406   2.503   2.995  0.0321  0.3531 -0.2345
  524SOL    HW1 1616   2.362   2.533   3.070  1.5371  4.0177  1.5808
  524SOL    HW2 1617   2.479   2.569   2.987 -0.3967 -1.9275  3.2122
  525SOL     OW 1618   2.340   2.737   1.120 -0.7242 -0.6465 -0.3180
  525SOL    HW1 1619   2.389   2.823   1.090 -0.2880  2.3690 -1.5513
  525SOL    HW2 1620   2.392   2.733   1.204  2.2853  0.9770  0.9077
  526SOL     OW 1621   0.255   0.169   2.615  0.5994  0.4788 -0.5231
  526SOL    HW1 1622   0.193   0.118   2.673 -3.1188  0.8417 -1.5153
  526SOL    HW2 1623   0.333   0.167   2.667  1.0225  1.1555  0.6470
  527SOL     OW 1624   0.221   0.764   2.800  0.2710 -0.3024  0.0658
  527SOL    HW1 1625   0.223   0.688   2.728 -0.8766 -0.9080 -0.9845
  527SOL    HW2 1626   0.152   0.733   2.861  1.3867  0.9822  0.8091
  528SOL     OW 1627   1.334   2.928   1.606 -0.1916 -0.5916  0.3050
  528SOL    HW1 1628   1.307   2.892   1.691 -1.9570 -1.1618  0.7354
  528SOL    HW2 1629   1.259   2.900   1.552 -0.6110 -3.1219  0.2350
  529SOL     OW 1630   2.364   2.195   1.875 -0.1013  0.4343 -0.1139
  529SOL    HW1 1631   2.277   2.207   1.823 -2.5256  1.1289 -1.1293
  529SOL    HW2 1632   2.434   2.219   1.814  0.3232  0.8272  1.4817
  530SOL     OW 1633   2.863   2.161   2.908  0.5036  0.0095 -0.0810
  530SOL    HW1 1634   2.928   2.160   2.976  0.1713  2.3531  0.3055
  530SOL    HW2 1635   2.786   2.138   2.966  0.3146 -0.2117 -1.6293
  531SOL     OW 1636   1.419   0.188   1.271  0.7116 -0.3240  0.1228
  531SOL    HW1 1637   1.406   0.134   1.194  2.9917 -0.3807  1.8889
  531SOL    HW2 1638   1.499   0.241   1.243  0.0530  2.8264  2.6532
  532SOL     OW 1639   2.186   1.335   0.172 -0.6001  0.0617  0.0006
  532SOL    HW1 1640   2.251   1.382   0.238  1.2463 -1.1012  2.1711
  532SOL    HW2 1641   2.147   1.415   0.142  0.5879 -3.0444  1.2422
  533SOL     OW 1642   0.336   2.753   0.842 -0.2096 -0.2390  0.0682
  533SOL    HW1 1643   0.370   2.809   0.908 -2.3359  2.1946 -1.1016
  533SOL    HW2 1644   0.242   2.765   0.866 -1.1256 -1.0685  1.3579
  534SOL     OW 1645   0.032   0.118   1.270 -0.2396 -0.0167 -0.4976
  534SOL    HW1 1646   0.028   0.128   1.365 -0.0395 -0.2145 -0.4117
  534SOL    HW2 1647   0.133   0.091   1.253  0.1668  2.3515  0.0119
  535SOL     OW 1648   0.542   2.336   2.168 -0.0228 -0.0265  0.3423
  535SOL    HW1 1649   0.558   2.390   2.244 -0.6581  0.6014  0.7997
  535SOL    HW2 1650   0.517   2.252   2.206  0.3433  2.1033 -0.7651
  536SOL     OW 1651   2.633   0.487   0.252  0.1335  0.3881  0.6608
  536SOL    HW1 1652   2.670   0.412   0.212 -0.0337 -0.4838  1.8171
  536SOL    HW2 1653   2.545   0.450   0.285  1.1261 -0.7104 -1.6795
  537SOL     OW 1654   2.821   1.429   2.937  0.0248 -0.6870  0.0284
  537SOL    HW1 1655   2.735   1.476   2.960 -1.7920  0.2156  1.4195
  537SOL    HW2 1656   2.878   1.511   2.970 -0.0147  0.8641  0.6028
  538SOL     OW 1657   2.711   2.693   0.271  0.5482  0.0791  0.2387
  538SOL    HW1 1658   2.718   2.604   0.229  2.3854 -1.4122  1.7173
  538SOL    HW2 1659   2.806   2.716   0.289 -0.2447 -0.3886  0.2636
  539SOL     OW 1660   1.161   1.886   1.299  0.7997  0.0677 -0.1177
  539SOL    HW1 1661   1.222   1.853   1.364  0.9960  0.1718  2.6541
  539SOL    HW2 1662   1.124   1.960   1.347  0.1385  1.1117 -0.0050
  540SOL     OW 1663   1.458   2.565   0.303 -0.6960 -0.2076 -0.0312
  540SOL    HW1 1664   1.397   2.585   0.377 -0.8904 -0.0498  3.9210
  540SOL    HW2 1665   1.535   2.614   0.342 -3.0888  0.6311 -0.9408
  541SOL     OW 1666   2.760   2.891   1.416  0.3659 -0.3917  0.4067
  541SOL    HW1 1667   2.757   2.803   1.459 -1.8088  1.2942  1.6815
  541SOL    HW2 1668   2.836   2.890   1.351  0.6160 -0.6504  2.7500
  542SOL     OW 1669   2.651   0.630   2.353 -0.2751  0.1256  0.5374
  542SOL    HW1 1670   2.596   0.707   2.329 -0.0558  0.4095 -3.7305
  542SOL    HW2 1671   2.625   0.569   2.284  1.2780  0.7278 -0.8247
  543SOL     OW 1672   0.082   0.656   2.434  0.2989 -0.2997  0.0731
  543SOL    HW1 1673   0.033   0.740   2.428 -0.9390  0.8929 -0.8988
  543SOL    HW2 1674   0.146   0.653   2.364 -0.5141 -3.0407  1.3411
  544SOL     OW 1675   2.927   1.258   1.038  0.1951 -0.3594 -0.0677
  544SOL    HW1 1676   2.991   1.249   0.964  0.9091 -0.4968 -0.2157
  544SOL    HW2 1677   2.870   1.328   0.999  1.1741  0.9511  0.8057
  545SOL     OW 1678   0.980   2.839   1.888  0.0248 -0.0738  0.6322
  545SOL    HW1 1679   0.941   2.750   1.888  0.2843 -0.8552  1.0718
  545SOL    HW2 1680   0.961   2.874   1.981 -0.0543  1.8888  0.6196
  546SOL     OW 1681   2.915   0.163   2.661 -0.6732  0.0788  0.2768
  546SOL    HW1 1682   2.958   0.220   2.731  0.6685 -0.9660 -0.2973
  546SOL    HW2 1683   2.953   0.076   2.681  1.8291 -1.9748  2.1485
  547SOL     OW 1684   2.598   0.551   2.842 -0.1121  0.2040  0.1567
  547SOL    HW1 1685   2.695   0.540   2.840 -0.2853  0.7037  3.6490
  547SOL    HW2 1686   2.587   0.516   2.927 -0.6221  3.7523  0.3628
  548SOL     OW 1687   1.539   2.845   2.760  0.3815  0.2027  0.1386
  548SOL    HW1 1688   1.517   2.901   2.833  0.0154 -1.8731  1.3638
  548SOL    HW2 1689   1.591   2.775   2.795  2.9392  1.0799 -1.5708
  549SOL     OW 1690   0.837   0.538   0.258  0.6436 -0.2601  0.1576
  549SOL    HW1 1691   0.826   0.480   0.182  1.3500  1.4493  0.8523
  549SOL    HW2 1692   0.856   0.616   0.201  1.1789 -0.3857 -0.5482
  550SOL     OW 1693   0.399   2.262   1.936 -0.0628 -0.0290  0.6533
  550SOL    HW1 1694   0.450   2.292   2.017 -1.9743  1.6134 -0.1539
  550SOL    HW2 1695   0.307   2.308   1.955 -2.9901 -5.3021 -0.1018
  551SOL     OW 1696   1.814   0.418   0.050 -0.1371  0.2358  0.3209
  551SOL    HW1 1697   1.783   0.346   0.101 -0.1353  0.9341  1.7669
  551SOL    HW2 1698   1.747   0.428  -0.021  0.1394 -2.3007 -0.8302
  552SOL     OW 1699   2.116   2.035   1.993  0.4895 -0.1505  0.0515
  552SOL    HW1 1700   2.205   2.069   1.973 -0.2973 -1.8409 -1.8788
  552SOL    HW2 1701   2.122   1.939   1.964  2.7515  1.3062 -0.9388
  553SOL     OW 1702   1.234   2.973   1.221 -0.0623  0.5430 -0.2531
  553SOL    HW1 1703   1.159   2.915   1.225 -1.6949 -0.7475  0.9953
  553SOL    HW2 1704   1.217   3.029   1.297 -0.8168  1.6037  1.2134
  554SOL     OW 1705   0.250   2.122   0.486 -0.2938  0.0535  0.0485
  554SOL    HW1 1706   0.203   2.073   0.554 -2.7429 -0.0672  2.4288
  554SOL    HW2 1707   0.311   2.158   0.556  1.7039 -0.7635  1.9547
  555SOL     OW 1708   1.885   1.064   2.869  0.4361  0.2372 -0.4149
  555SOL    HW1 1709   1.942   1.081   2.946  0.8067 -1.4235 -2.3938
  555SOL    HW2 1710   1.953   1.059   2.797 -1.8012  1.5519 -1.3283
  556SOL     OW 1711   2.307   0.950   0.262 -0.2532 -0.4563 -0.4511
  556SOL    HW1 1712   2.295   1.041   0.299  0.6333  0.0381 -0.6535
  556SOL    HW2 1713   2.268   0.887   0.325 -2.2790  0.3859  0.3415
  557SOL     OW 1714   0.974   0.023   0.081 -0.3664  0.2733 -0.7770
  557SOL    HW1 1715   1.002   0.009  -0.020  1.9449 -1.7059  0.4013
  557SOL    HW2 1716   0.939  -0.068   0.103  1.2692  0.4037  1.0944
  558SOL     OW 1717   0.491   1.117   0.789 -0.4426 -0.6302 -0.4728
  558SOL    HW1 1718   0.518   1.079   0.877 -0.3098  0.0563 -3.4884
  558SOL    HW2 1719   0.578   1.148   0.766  2.0567 -0.0748  0.3567
  559SOL     OW 1720   0.363   1.811   1.295  0.0589 -0.4315 -0.2321
  559SOL    HW1 1721   0.285   1.756   1.300 -2.2982  1.3056 -1.8363
  559SOL    HW2 1722   0.340   1.872   1.367  2.4257  0.4474  0.9662
  560SOL     OW 1723   0.897   1.377   0.341  0.4116 -0.4127 -0.4327
  560SOL    HW1 1724   0.841   1.389   0.419  1.3199 -0.8096 -2.8600
  560SOL    HW2 1725   0.932   1.286   0.350  1.3297  1.0938  2.2495
  561SOL     OW 1726   1.486   0.193   0.329 -0.4110 -0.5842 -0.4027
  561SOL    HW1 1727   1.389   0.214   0.297 -0.8485 -1.4866  1.5508
  561SOL    HW2 1728   1.480   0.261   0.399  1.9425 -0.5824 -1.8339
  562SOL     OW 1729   2.916   0.157   0.637  0.0492  0.2736  0.6241
  562SOL    HW1 1730   2.859   0.111   0.705  0.5092  0.4801 -0.9204
  562SOL    HW2 1731   2.886   0.247   0.640 -0.5580 -1.4308 -1.0876
  563SOL     OW 1732   1.885   0.751   2.865 -0.1272 -0.4705  0.6352
  563SOL    HW1 1733   1.936   0.812   2.915  2.0674  4.2215 -0.9595
  563SOL    HW2 1734   1.958   0.685   2.854  1.0704  1.0461  0.3880
  564SOL     OW 1735   2.456   0.713   0.142 -0.5000 -0.1916  0.3229
  564SOL    HW1 1736   2.415   0.796   0.178 -1.9292  1.9849  1.6388
  564SOL    HW2 1737   2.520   0.681   0.208  1.4814  1.2608  0.8561
  565SOL     OW 1738   2.254   0.711   1.677  0.1505 -0.1886  0.7618
  565SOL    HW1 1739   2.287   0.800   1.683 -0.6360 -0.8070  0.0824
  565SOL    HW2 1740   2.344   0.669   1.669  2.7593 -0.2926 -0.6052
  566SOL     OW 1741   0.086   2.615   0.071  0.1691 -0.5755  0.1530
  566SOL    HW1 1742   0.153   2.548   0.097  2.9589  0.0752 -0.3279
  566SOL    HW2 1743   0.058   2.583  -0.019  2.8342  0.8301  0.8558
  567SOL     OW 1744   2.523   1.599   0.541  0.4264  0.2937 -0.5286
  567SOL    HW1 1745   2.526   1.695   0.573 -0.9406  2.6607 -1.3868
  567SOL    HW2 1746   2.495   1.613   0.450 -2.7475  0.9701 -0.9757
  568SOL     OW 1747   1.326   2.446   1.654  0.0538  0.0867 -0.5494
  568SOL    HW1 1748   1.261   2.426   1.726 -2.3775 -1.1029  0.3037
  568SOL    HW2 1749   1.330   2.357   1.619 -2.2768  1.5546  3.5464
  569SOL     OW 1750   1.294   0.644   2.743  0.3338 -0.1517  0.6375
  569SOL    HW1 1751   1.335   0.621   2.653 -1.5069 -2.3712  2.8264
  569SOL    HW2 1752   1.376   0.659   2.788 -2.0212 -0.5490 -2.9096
  570SOL     OW 1753   2.756   2.965   2.475 -0.5846  0.1069 -0.3930
  570SOL    HW1 1754   2.819   3.002   2.546 -2.2659  0.8791  3.1637
  570SOL    HW2 1755   2.743   3.044   2.417 -0.9345  0.7338  0.4725
  571SOL     OW 1756   1.285   2.236   0.057  0.7585 -0.2490 -0.5076
  571SOL    HW1 1757   1.215   2.298   0.082 -1.4387  1.1415  0.1496
  571SOL    HW2 1758   1.372   2.275   0.078 -0.5938 -2.2562 -1.9598
  572SOL     OW 1759   1.074   1.145   0.173 -0.6690 -0.0827 -0.3815
  572SOL    HW1 1760   1.113   1.092   0.249 -0.8098  1.0838  0.6191
  572SOL    HW2 1761   1.160   1.166   0.130  1.5397  0.6663  1.3668
  573SOL     OW 1762   1.777   0.344   0.911  0.4211  0.0469 -0.2988
  573SOL    HW1 1763   1.803   0.318   0.822 -2.0217  0.1763  2.0098
  573SOL    HW2 1764   1.824   0.430   0.921 -1.9374  0.4398 -0.4005
  574SOL     OW 1765   0.172   2.381   2.365  0.3557  0.5464  0.6111
  574SOL    HW1 1766   0.176   2.279   2.366 -1.3621 -0.5301 -2.1914
  574SOL    HW2 1767   0.251   2.407   2.420 -0.5761  0.8111  1.3211
  575SOL     OW 1768   1.384   1.113   1.838 -0.1530  0.0621 -0.5739
  575SOL    HW1 1769   1.402   1.052   1.763 -1.6180  3.0152  1.2126
  575SOL    HW2 1770   1.301   1.080   1.880 -2.2949 -1.8295  0.7154
  576SOL     OW 1771   2.121   2.663   1.645  0.3569 -0.1129  0.0366
  576SOL    HW1 1772   2.067   2.601   1.698 -1.7012  3.5592 -0.9945
  576SOL    HW2 1773   2.097   2.644   1.552 -0.2064  1.1882  0.5812
  577SOL     OW 1774   1.610   0.727   1.753 -0.3411 -0.5408  0.0652
  577SOL    HW1 1775   1.647   0.762   1.839 -0.0124  0.1328  1.3243
  577SOL    HW2 1776   1.566   0.647   1.790  1.4967  1.9078 -2.3204
  578SOL     OW 1777   2.964   0.918   2.365  0.0864 -0.0750  0.0892
  578SOL    HW1 1778   2.946   0.963   2.453 -1.2315  1.0107 -0.2432
  578SOL    HW2 1779   2.884   0.945   2.323  0.6756 -0.5815 -3.5288
  579SOL     OW 1780   0.160   0.275   2.191  0.0639 -0.2310 -0.0259
  579SOL    HW1 1781   0.128   0.185   2.189 -0.0683  0.4061 -1.9441
  579SOL    HW2 1782   0.118   0.310   2.274  1.4730 -2.3140  2.6302
  580SOL     OW 1783   0.729   2.291   2.968  0.0168  0.7621  0.3753
  580SOL    HW1 1784   0.654   2.303   2.903  0.7657  1.3519 -0.9523
  580SOL    HW2 1785   0.798   2.297   2.902  0.8871  0.1786 -0.7693
  581SOL     OW 1786   0.022   0.483   0.544 -0.0479  0.2096 -0.6097
  581SOL    HW1 1787  -0.038   0.541   0.495  0.7634 -0.8205  3.3275
  581SOL    HW2 1788   0.100   0.540   0.568 -1.0232 -0.9668 -1.4186
  582SOL     OW 1789   0.085   2.769   0.898 -0.9593  0.2697 -0.4347
  582SOL    HW1 1790   0.053   2.857   0.899 -2.0400  2.5921 -1.6045
  582SOL    HW2 1791   0.033   2.725   0.831 -0.2726  1.8241 -1.3029
  583SOL     OW 1792   1.483   2.931   0.272 -0.8826 -0.2031 -0.0763
  583SOL    HW1 1793   1.392   2.925   0.242 -0.9383  3.0903 -2.5478
  583SOL    HW2 1794   1.482   3.024   0.301 -0.8521  0.5385  0.7483
  584SOL     OW 1795   2.963   2.139   1.679  0.1010  0.1154 -0.7297
  584SOL    HW1 1796   3.031   2.065   1.670  2.7437 -1.8894 -0.5112
  584SOL    HW2 1797   2.982   2.193   1.602 -0.6978  0.3772  3.5279
  585SOL     OW 1798   0.860   2.791   0.145  0.3733 -0.0069  0.1476
  585SOL    HW1 1799   0.853   2.753   0.235 -1.6797  0.4799  0.1223
  585SOL    HW2 1800   0.779   2.762   0.108  4.0890  1.1204 -1.8649
  586SOL     OW 1801   2.800   1.825   2.161  0.4045  0.1864  0.2630
  586SOL    HW1 1802   2.795   1.911   2.120 -2.0810 -1.7518  0.0139
  586SOL    HW2 1803   2.897   1.814   2.159 -0.0297  1.0267 -1.1631
  587SOL     OW 1804   2.058   0.202   2.454  0.1860 -0.2204 -0.0848
  587SOL    HW1 1805   2.098   0.135   2.514 -2.0655 -0.3961  2.0046
  587SOL    HW2 1806   1.987   0.150   2.422 -1.1858  2.7145 -0.7050
  588SOL     OW 1807   2.689   2.661   1.965 -0.2462 -0.1458  0.1669
  588SOL    HW1 1808   2.610   2.620   1.943 -0.1287 -1.4106 -0.7381
  588SOL    HW2 1809   2.703   2.619   2.055  0.4443 -1.6107 -1.7501
  589SOL     OW 1810   1.127   0.310   2.118  0.7930  0.2392 -0.1642
  589SOL    HW1 1811   1.085   0.333   2.207 -2.5557 -1.1724  1.5071
  589SOL    HW2 1812   1.162   0.396   2.087 -1.0495 -1.2475 -0.9399
  590SOL     OW 1813   0.162   1.107   1.540 -0.0363 -0.3650 -0.1333
  590SOL    HW1 1814   0.076   1.071   1.516  0.7551 -3.4941 -0.7390
  590SOL    HW2 1815   0.212   1.029   1.576  3.8549 -1.8718 -0.1144
  591SOL     OW 1816   2.569   1.537   1.585 -0.2999  0.0333 -0.0722
  591SOL    HW1 1817   2.636   1.540   1.518 -0.2853  3.9568 -0.6688
  591SOL    HW2 1818   2.550   1.437   1.588  2.8294  0.9191  0.0879
  592SOL     OW 1819   0.820   0.058   0.339 -0.4110  0.0721 -0.1117
  592SOL    HW1 1820   0.893   0.032   0.281 -0.1388 -2.2286 -0.9497
  592SOL    HW2 1821   0.856   0.129   0.392  1.3731 -1.0062  0.5408
  593SOL     OW 1822   2.163   2.761   2.052  1.1674 -0.1670  0.1314
  593SOL    HW1 1823   2.138   2.672   2.074  0.4252  0.7711 -1.4440
  593SOL    HW2 1824   2.086   2.780   1.996  1.7372  0.7455  0.6203
  594SOL     OW 1825   1.226   0.374   0.792 -0.1573 -0.6144  0.3797
  594SOL    HW1 1826   1.166   0.319   0.842 -0.5777  1.2233  2.0828
  594SOL    HW2 1827   1.265   0.419   0.866 -2.6550 -1.8474 -0.1723
  595SOL     OW 1828   0.651   0.639   0.640 -0.5536  0.0621  0.1981
  595SOL    HW1 1829   0.659   0.727   0.595 -1.0777 -0.1456 -1.2140
  595SOL    HW2 1830   0.651   0.575   0.567 -0.4267  1.6761  1.2806
  596SOL     OW 1831   2.178   2.738   0.697  0.2675 -0.2048 -0.5343
  596SOL    HW1 1832   2.258   2.681   0.678  4.3532 -0.8646 -1.0974
  596SOL    HW2 1833   2.106   2.675   0.705  1.5260  0.3818 -0.8975
  597SOL     OW 1834   2.976   1.620   0.014  0.6164 -0.2489  0.3645
  597SOL    HW1 1835   2.957   1.701  -0.031 -0.1403  1.4408 -0.3974
  597SOL    HW2 1836   3.073   1.627   0.027  2.0902  2.4742  1.1797
  598SOL     OW 1837   1.671   2.964   0.820  0.2193  0.6274 -0.0805
  598SOL    HW1 1838   1.729   3.012   0.879 -1.4753  1.6208  1.6003
  598SOL    HW2 1839   1.595   3.023   0.804  1.3071 -2.0605  0.4543
  599SOL     OW 1840   1.492   2.919   1.998  0.3128 -0.3960 -0.3746
  599SOL    HW1 1841   1.482   2.821   2.025 -1.1111  0.8331 -0.8197
  599SOL    HW2 1842   1.429   2.922   1.930  1.1423  2.0087  1.5391
  600SOL     OW 1843   2.902   1.681   0.863  0.1970 -0.0387 -0.4323
  600SOL    HW1 1844   2.994   1.660   0.841  1.5533  2.0303  0.5018
  600SOL    HW2 1845   2.910   1.697   0.960  2.3147  0.3381  1.8675
  601SOL     OW 1846   1.340   0.944   2.119  0.5900 -0.3274 -0.2977
  601SOL    HW1 1847   1.323   0.906   2.204 -1.2950 -0.1289 -0.1306
  601SOL    HW2 1848   1.441   0.959   2.112 -0.1883 -0.2135  0.2457
  602SOL     OW 1849   1.385   1.774   1.443  0.4522 -0.0232  0.6240
  602SOL    HW1 1850   1.387   1.752   1.538  0.3252  1.0039 -3.2369
  602SOL    HW2 1851   1.441   1.856   1.437  1.2075  1.9145 -1.3411
  603SOL     OW 1852   1.591   0.952   0.777  0.1369 -0.2485 -0.4526
  603SOL    HW1 1853   1.619   0.942   0.684  4.0176 -0.9276  0.6590
  603SOL    HW2 1854   1.651   0.893   0.812 -5.6983 -0.2893 -1.4029
  604SOL     OW 1855   0.674   0.643   2.678  0.0511  0.4697  0.3433
  604SOL    HW1 1856   0.604   0.709   2.715 -0.7783  0.5371  0.1279
  604SOL    HW2 1857   0.643   0.561   2.707  3.3882  0.7848  0.2130
  605SOL     OW 1858   2.253   1.917   2.941 -0.2816 -0.0261 -0.2462
  605SOL    HW1 1859   2.188   1.863   2.991  2.2891 -1.0299  0.7996
  605SOL    HW2 1860   2.231   1.896   2.849  0.8159  0.8216 -2.2893
  606SOL     OW 1861   0.698   0.345   2.202  0.3090  0.2127 -0.2170
  606SOL    HW1 1862   0.776   0.297   2.160  0.9389 -1.7880  2.0603
  606SOL    HW2 1863   0.644   0.264   2.229 -2.3473 -5.5158  0.1801
  607SOL     OW 1864   2.774   0.263   0.047  0.3772  0.1267 -0.6833
  607SOL    HW1 1865   2.778   0.171   0.080  0.0057 -2.3182 -0.3572
  607SOL    HW2 1866   2.680   0.281   0.023  0.4923 -0.4347 -0.9139
  608SOL     OW 1867   2.917   1.728   1.644 -0.0831  0.2591 -0.2199
  608SOL    HW1 1868   2.980   1.658   1.675 -1.6918  0.7652  0.2835
  608SOL    HW2 1869   2.917   1.702   1.552  0.3861  0.8511 -0.9331
  609SOL     OW 1870   0.314   2.814   0.582  0.0591 -0.4122  0.0825
  609SOL    HW1 1871   0.354   2.790   0.665 -0.5532  1.2485  1.8694
  609SOL    HW2 1872   0.239   2.877   0.614  0.1586  0.9443  1.6227
  610SOL     OW 1873   2.519   0.418   1.130  0.5218 -0.4365 -0.1979
  610SOL    HW1 1874   2.552   0.373   1.046  0.3743  0.0039 -0.4312
  610SOL    HW2 1875   2.440   0.451   1.086  0.4056 -1.6259 -3.2853
  611SOL     OW 1876   2.683   1.225   2.717  0.4517  0.3426 -0.1943
  611SOL    HW1 1877   2.642   1.180   2.800  0.8965  0.8825 -2.6185
  611SOL    HW2 1878   2.710   1.314   2.747  1.2012  0.9535 -0.2276
  612SOL     OW 1879   1.101   0.013   1.476 -0.2887 -0.1393 -0.1051
  612SOL    HW1 1880   1.050  -0.045   1.417  2.5841  0.9974 -0.2961
  612SOL    HW2 1881   1.047  -0.004   1.552  2.0679 -2.5454  2.3237
  613SOL     OW 1882   2.495   1.352   1.200 -0.5039 -0.3378 -0.1932
  613SOL    HW1 1883   2.416   1.407   1.200  1.6683 -0.5752  0.9551
  613SOL    HW2 1884   2.443   1.274   1.173 -3.2476 -0.5169  0.5423
  614SOL     OW 1885   0.082   1.132   2.120  0.1733 -0.0547 -0.0475
  614SOL    HW1 1886   0.092   1.039   2.143  0.8494 -1.4571 -1.0247
  614SOL    HW2 1887   0.009   1.159   2.175  0.4383 -2.5037  1.5886
  615SOL     OW 1888   2.553   2.920   0.812  0.0739 -0.3326 -0.1525
  615SOL    HW1 1889   2.561   2.833   0.774 -0.8529  0.3686  0.0936
  615SOL    HW2 1890   2.457   2.934   0.793  1.9286 -1.3508 -0.4554
  616SOL     OW 1891   0.950   1.163   1.859 -0.2782 -0.1318  0.5532
  616SOL    HW1 1892   1.013   1.095   1.887  0.6633 -2.2543  1.0429
  616SOL    HW2 1893   0.963   1.159   1.757  0.1826 -0.6486 -1.7684
  617SOL     OW 1894   1.922   0.981   1.052 -0.4075  0.0203 -0.5524
  617SOL    HW1 1895   1.953   0.997   0.957 -0.5966 -0.9253 -0.9467
  617SOL    HW2 1896   1.947   1.059   1.099  0.6325 -1.0870 -5.7891
  618SOL     OW 1897   2.568   0.975   1.832  0.6259  0.2741 -0.1838
  618SOL    HW1 1898   2.611   0.900   1.788 -3.9069  0.7142 -1.9862
  618SOL    HW2 1899   2.647   1.009   1.876 -1.1307 -0.4982  1.0949
  619SOL     OW 1900   1.236   2.925   0.199 -0.3500 -0.0224 -0.1128
  619SOL    HW1 1901   1.220   2.851   0.137  1.6512  0.6734  3.4136
  619SOL    HW2 1902   1.182   3.002   0.167 -0.1299 -2.7526 -1.6373
  620SOL     OW 1903   1.752   0.726   2.006 -0.1774 -0.6731 -0.1908
  620SOL    HW1 1904   1.821   0.794   2.014  0.4424 -2.0951  2.3954
  620SOL    HW2 1905   1.782   0.664   2.073 -0.7161  0.2134  1.8559
  621SOL     OW 1906   1.680   0.394   2.588 -0.2959  0.5706 -0.0897
  621SOL    HW1 1907   1.735   0.471   2.571 -2.3307 -0.7924 -4.7245
  621SOL    HW2 1908   1.646   0.380   2.499 -0.4500  3.6071 -1.4130
  622SOL     OW 1909   0.823   2.100   2.428 -0.5483 -0.4058 -0.2607
  622SOL    HW1 1910   0.742   2.048   2.414  0.8284 -0.8969  2.2861
  622SOL    HW2 1911   0.787   2.178   2.469  0.5325  1.7186  1.9911
  623SOL     OW 1912   2.919   2.469   2.041 -0.3288 -0.4164  0.2699
  623SOL    HW1 1913   2.896   2.380   2.012 -1.9629 -0.2877  1.4953
  623SOL    HW2 1914   2.840   2.498   2.079 -1.4023 -1.3789  0.8755
  624SOL     OW 1915   0.051   2.188   0.292  0.3391  1.0087 -0.1202
  624SOL    HW1 1916   0.112   2.148   0.354 -0.6409  1.7685 -0.9828
  624SOL    HW2 1917  -0.035   2.151   0.331 -1.1056  1.2759  1.6649
  625SOL     OW 1918   0.004   2.468   1.125 -0.3942  0.1034 -0.1248
  625SOL    HW1 1919   0.092   2.438   1.077 -2.9726 -0.2377 -0.9620
  625SOL    HW2 1920  -0.055   2.484   1.048 -0.9154 -0.5940 -1.1907
  626SOL     OW 1921   2.682   1.606   2.067 -0.1002 -0.3614 -0.3059
  626SOL    HW1 1922   2.689   1.555   2.150  0.2780 -1.7632  2.4053
  626SOL    HW2 1923   2.729   1.682   2.100  0.9873 -0.0433  0.5685
  627SOL     OW 1924   0.471   2.047   0.178 -0.2563 -0.0575 -0.3262
  627SOL    HW1 1925   0.430   2.135   0.206  0.8211  1.5744  2.7853
  627SOL    HW2 1926   0.453   1.992   0.257 -0.8395  1.8473  0.4070
  628SOL     OW 1927   2.802   2.445   0.196  0.2006  0.1914 -0.6156
  628SOL    HW1 1928   2.806   2.488   0.110 -1.6927 -0.6042  2.1140
  628SOL    HW2 1929   2.888   2.462   0.232 -2.0782 -0.1693  0.4064
  629SOL     OW 1930   1.351   2.744   1.045  0.3742  0.2290 -0.0659
  629SOL    HW1 1931   1.384   2.768   1.132 -0.9622 -0.1972  0.0589
  629SOL    HW2 1932   1.437   2.707   1.022 -0.5238  1.3681  0.2235
  630SOL     OW 1933   0.218   2.763   1.266  0.0974  0.6112 -0.3465
  630SOL    HW1 1934   0.233   2.842   1.321 -2.2612  0.3548  2.6111
  630SOL    HW2 1935   0.275   2.787   1.192  2.0268 -3.3867  0.7670
  631SOL     OW 1936   0.090   1.768   2.084 -0.2193  0.2970 -0.1916
  631SOL    HW1 1937   0.177   1.758   2.048  1.5403  0.8659 -0.3342
  631SOL    HW2 1938   0.074   1.676   2.116 -1.6970 -2.2503  2.2230
  632SOL     OW 1939   1.679   0.735   0.312  0.2649  0.1902  0.3490
  632SOL    HW1 1940   1.639   0.771   0.230 -1.8166  0.9591 -0.8948
  632SOL    HW2 1941   1.625   0.653   0.315 -1.6991  0.7636  0.4286
  633SOL     OW 1942   0.410   1.680   2.133  0.0774  0.0466 -0.4242
  633SOL    HW1 1943   0.415   1.752   2.198  0.7235 -2.1870  1.8697
  633SOL    HW2 1944   0.507   1.680   2.117 -0.3063 -1.2943 -2.0899
  634SOL     OW 1945   2.567   1.208   2.375 -0.0194 -0.3956 -0.1490
  634SOL    HW1 1946   2.578   1.193   2.472 -0.9441 -0.7076 -2.8738
  634SOL    HW2 1947   2.631   1.140   2.345 -0.0246  0.6784 -1.3510
  635SOL     OW 1948   1.800   2.903   1.499 -0.0473 -0.3068 -0.3421
  635SOL    HW1 1949   1.894   2.915   1.531  0.2188  1.6798  2.0067
  635SOL    HW2 1950   1.785   2.978   1.439 -0.2018 -2.3420 -0.6075
  636SOL     OW 1951   1.052   2.102   2.277 -0.5913 -0.2858 -0.0544
  636SOL    HW1 1952   1.071   2.008   2.290  1.0302 -0.3235  3.4138
  636SOL    HW2 1953   0.977   2.103   2.339 -0.0645 -0.5064 -0.4346
  637SOL     OW 1954   0.437   0.475   1.217 -0.5707 -0.0250 -0.4069
  637SOL    HW1 1955   0.457   0.572   1.248 -1.0341 -0.7597 -2.5940
  637SOL    HW2 1956   0.526   0.442   1.199  1.7171  1.7153  0.4709
  638SOL     OW 1957   2.331   1.532   2.124  0.0729 -0.2005  0.1683
  638SOL    HW1 1958   2.324   1.625   2.087  1.2118  0.4285 -1.0053
  638SOL    HW2 1959   2.346   1.540   2.215 -0.6643 -1.8720  2.6617
  639SOL     OW 1960   1.944   0.107   1.800  0.0500 -0.4083 -0.3756
  639SOL    HW1 1961   1.941   0.179   1.727  1.7303 -0.9587 -2.2583
  639SOL    HW2 1962   1.998   0.036   1.759 -2.9149  0.2104  2.3082
  640SOL     OW 1963   0.718   0.493   1.713  0.3184 -0.5886 -0.3865
  640SOL    HW1 1964   0.663   0.428   1.771 -0.5803  0.3614 -1.9856
  640SOL    HW2 1965   0.644   0.551   1.688 -0.3861 -0.8155 -0.3179
  641SOL     OW 1966   2.725   2.573   2.201  0.0247 -0.7029 -0.0871
  641SOL    HW1 1967   2.695   2.539   2.284  2.0279  1.1784 -1.3867
  641SOL    HW2 1968   2.784   2.647   2.234 -0.7367 -0.6726  1.5465
  642SOL     OW 1969   0.111   2.729   2.422  0.0288  0.0915  0.4437
  642SOL    HW1 1970   0.151   2.656   2.368 -0.7159 -0.1061  1.8365
  642SOL    HW2 1971   0.165   2.807   2.400 -1.6229  0.1170  0.2747
  643SOL     OW 1972   2.250   1.902   0.607  0.3875 -0.0671 -0.4110
  643SOL    HW1 1973   2.224   1.833   0.668  0.6082  0.2789 -2.0835
  643SOL    HW2 1974   2.341   1.878   0.579  0.3911  1.0681 -0.2008
  644SOL     OW 1975   0.861   1.609   0.092  0.2049 -0.2695  0.3764
  644SOL    HW1 1976   0.947   1.565   0.123 -0.1135  1.3190  0.9241
  644SOL    HW2 1977   0.883   1.697   0.060  1.1633  0.4623 -0.4801
  645SOL     OW 1978   1.024   0.359   2.803  0.2087  0.2079  0.1290
  645SOL    HW1 1979   1.024   0.455   2.799 -3.4940  0.2370 -2.0402
  645SOL    HW2 1980   0.994   0.338   2.710  1.0469  0.8002 -2.3508
  646SOL     OW 1981   2.503   1.305   1.648 -0.0474  0.3744 -0.1093
  646SOL    HW1 1982   2.540   1.248   1.719 -0.1680  1.2267  1.0751
  646SOL    HW2 1983   2.413   1.269   1.632 -1.4612 -1.5257 -1.0541
  647SOL     OW 1984   0.732   1.437   0.554  0.8668  0.4789  0.3388
  647SOL    HW1 1985   0.732   1.511   0.616 -1.3044 -0.5151  3.1210
  647SOL    HW2 1986   0.691   1.367   0.609  1.0039 -0.4337  2.0912
  648SOL     OW 1987   0.123   0.585   0.295 -0.7642  0.1303 -0.4842
  648SOL    HW1 1988   0.186   0.548   0.353 -1.4286 -2.2625 -0.7018
  648SOL    HW2 1989   0.142   0.539   0.212  2.8440 -2.3272  1.7375
  649SOL     OW 1990   1.383   1.465   0.336 -0.5982 -0.1891  0.0420
  649SOL    HW1 1991   1.454   1.533   0.317 -0.3771 -1.1393 -1.6288
  649SOL    HW2 1992   1.361   1.505   0.422  0.8349  1.0422  0.3567
  650SOL     OW 1993   2.396   1.294   2.947  0.1508  0.3876 -0.2924
  650SOL    HW1 1994   2.332   1.340   2.888  2.2100 -0.0739 -0.6942
  650SOL    HW2 1995   2.337   1.254   3.013 -1.1382  0.3709 -2.1556
  651SOL     OW 1996   2.418   1.034   2.050 -0.5024 -0.1925  0.2279
  651SOL    HW1 1997   2.432   1.132   2.045  0.4365  1.2738 -0.0080
  651SOL    HW2 1998   2.457   0.999   1.961  2.3248 -0.1324 -0.3265
  652SOL     OW 1999   0.885   2.159   1.210 -0.2403 -0.4446 -0.1012
  652SOL    HW1 2000   0.859   2.121   1.118  2.0732  4.6085 -0.1482
  652SOL    HW2 2001   0.803   2.198   1.240  1.0162  0.2043  0.4292
  653SOL     OW 2002   0.624   2.778   0.577  0.3963 -0.1213 -0.1181
  653SOL    HW1 2003   0.619   2.863   0.627 -1.5653 -2.7575 -0.3801
  653SOL    HW2 2004   0.574   2.714   0.634 -0.2730 -0.5292 -4.1806
  654SOL     OW 2005   0.295   0.241   1.843  0.2819 -0.1627  0.1297
  654SOL    HW1 2006   0.328   0.162   1.886 -3.2678 -0.9006 -2.4681
  654SOL    HW2 2007   0.199   0.226   1.836  2.2192  3.0079  0.2054
  655SOL     OW 2008   0.870   0.610   2.510  0.0010  0.2689 -0.4511
  655SOL    HW1 2009   0.923   0.629   2.592  3.1174 -0.2969 -3.0315
  655SOL    HW2 2010   0.776   0.611   2.547  1.0081  0.3650 -1.7097
  656SOL     OW 2011   0.654   1.632   1.555  0.0168 -0.1149 -0.2904
  656SOL    HW1 2012   0.609   1.552   1.516 -4.4178  0.6656 -2.1519
  656SOL    HW2 2013   0.583   1.697   1.549 -0.5013 -0.4869 -0.2863
  657SOL     OW 2014   1.191   1.367   1.811  0.3384  0.0725 -0.2881
  657SOL    HW1 2015   1.271   1.354   1.763  3.5637  3.3841  0.7737
  657SOL    HW2 2016   1.145   1.283   1.815 -0.7076 -0.5372  1.3438
  658SOL     OW 2017   2.131   0.889   2.948  0.3689 -0.1293 -0.0946
  658SOL    HW1 2018   2.122   0.970   3.000 -2.8914  3.0579 -1.0556
  658SOL    HW2 2019   2.099   0.827   3.017 -1.2698  0.5974  1.8086
  659SOL     OW 2020   2.165   2.977   2.250  0.4050  0.0556  0.1814
  659SOL    HW1 2021   2.153   2.885   2.222 -1.1762  1.0044  0.5981
  659SOL    HW2 2022   2.088   2.978   2.311  2.0526 -0.2605  0.7740
  660SOL     OW 2023   0.115   1.914   1.750 -0.3483 -0.1795 -0.2880
  660SOL    HW1 2024   0.168   1.846   1.801 -1.8961 -0.8158  2.5199
  660SOL    HW2 2025   0.068   1.860   1.683  0.6592 -0.7882 -2.3942
  661SOL     OW 2026   2.627   1.502   0.219  0.1866  0.3012 -0.0692
  661SOL    HW1 2027   2.589   1.434   0.273  0.7318  2.9475 -0.2306
  661SOL    HW2 2028   2.718   1.509   0.259 -1.6594  1.5392  0.6546
  662SOL     OW 2029   2.864   0.554   2.829  0.4422 -0.0234  0.2673
  662SOL    HW1 2030   2.868   0.544   2.730  0.6889  0.9764 -0.9852
  662SOL    HW2 2031   2.895   0.466   2.862  0.4147 -1.0586 -0.7062
  663SOL     OW 2032   2.598   1.844   2.825  0.0132  0.2329  0.3029
  663SOL    HW1 2033   2.562   1.820   2.915  0.6157  2.1714 -1.2307
  663SOL    HW2 2034   2.579   1.940   2.823  2.1883 -2.2002  2.1325
  664SOL     OW 2035   2.140   2.261   1.764  0.2451  0.2864  0.1024
  664SOL    HW1 2036   2.060   2.229   1.806  2.5849  0.7723  1.1577
  664SOL    HW2 2037   2.130   2.354   1.785  1.0072 -1.2892  3.0972
  665SOL     OW 2038   0.294   0.712   2.061  0.1382  0.6815  0.0634
  665SOL    HW1 2039   0.383   0.674   2.072  2.0075  1.1595 -0.7859
  665SOL    HW2 2040   0.281   0.675   1.974 -0.5719  0.4400 -2.1793
  666SOL     OW 2041   1.932   2.911   2.379 -0.0880  0.2348  0.5793
  666SOL    HW1 2042   1.953   2.881   2.469  1.9313 -1.2538  1.9129
  666SOL    HW2 2043   1.879   2.988   2.404 -1.1144 -0.3816  2.3994
  667SOL     OW 2044   0.857   0.361   1.529 -0.4763  0.3378 -0.5243
  667SOL    HW1 2045   0.819   0.423   1.596  3.1699 -1.0380  1.3006
  667SOL    HW2 2046   0.935   0.408   1.503 -0.3754  3.4455  0.4054
  668SOL     OW 2047   2.983   1.422   1.259 -0.4795 -0.2254  0.4727
  668SOL    HW1 2048   2.970   1.365   1.187  1.9684 -0.7719 -0.2245
  668SOL    HW2 2049   3.071   1.391   1.292  0.2689 -0.2292 -0.3687
  669SOL     OW 2050   2.077   1.760   1.929  0.5928  0.2710  0.6249
  669SOL    HW1 2051   2.154   1.757   1.995 -0.0831 -0.2840  1.7075
  669SOL    HW2 2052   2.127   1.754   1.843  0.5262 -0.9646  2.8820
  670SOL     OW 2053   2.708   1.008   2.257 -0.0728 -0.1923 -0.2373
  670SOL    HW1 2054   2.629   0.952   2.240  1.2011  1.8224 -0.2304
  670SOL    HW2 2055   2.734   1.068   2.185  0.7036 -2.2988 -0.1393
  671SOL     OW 2056   2.474   2.958   2.499 -0.0994  0.5591 -0.3381
  671SOL    HW1 2057   2.568   2.959   2.480 -0.3366 -0.3051  0.8751
  671SOL    HW2 2058   2.454   2.914   2.407  0.2727  1.0204 -0.7491
  672SOL     OW 2059   1.606   0.343   1.128 -0.2995  0.0933  0.0983
  672SOL    HW1 2060   1.665   0.321   1.051 -0.0938  0.5023 -0.6319
  672SOL    HW2 2061   1.585   0.434   1.100  1.9227 -0.6275  0.5084
  673SOL     OW 2062   2.946   2.362   2.502  0.0043  0.0581  0.2188
  673SOL    HW1 2063   2.939   2.268   2.510  0.7427 -0.4913  1.1419
  673SOL    HW2 2064   3.023   2.381   2.445 -1.7196  0.6747 -0.6642
  674SOL     OW 2065   0.909   1.899   0.504  0.3084 -0.5464  0.0226
  674SOL    HW1 2066   0.813   1.906   0.524 -0.9627  0.0901 -0.2017
  674SOL    HW2 2067   0.920   1.945   0.420 -1.8630  0.0705 -0.6263
  675SOL     OW 2068   1.239   0.853   2.379 -0.2292 -0.5837  0.8455
  675SOL    HW1 2069   1.175   0.870   2.445  0.5013 -1.8051 -0.8899
  675SOL    HW2 2070   1.198   0.774   2.336 -1.6755 -1.6526  1.6135
  676SOL     OW 2071   1.863   1.699   2.334  0.3367 -0.1552 -0.2122
  676SOL    HW1 2072   1.778   1.649   2.333  1.0979 -1.4543 -1.8046
  676SOL    HW2 2073   1.914   1.627   2.383  0.4903 -0.2940 -0.8644
  677SOL     OW 2074   0.702   0.867   0.477  0.0630  0.6177 -0.2195
  677SOL    HW1 2075   0.674   0.863   0.387 -0.0581  0.8004 -1.4126
  677SOL    HW2 2076   0.634   0.924   0.506  2.9832 -3.2123 -0.4165
  678SOL     OW 2077   2.056   2.502   0.207 -0.2297  0.3064  0.2175
  678SOL    HW1 2078   2.028   2.510   0.110  2.0359 -0.7467 -0.9729
  678SOL    HW2 2079   1.997   2.563   0.251 -0.6347 -0.7109 -0.7941
  679SOL     OW 2080   2.205   2.856   0.351  0.0073 -0.1979  0.3712
  679SOL    HW1 2081   2.183   2.797   0.424 -0.2920 -0.6093  0.2980
  679SOL    HW2 2082   2.231   2.936   0.403 -1.9809  0.3169  0.9011
  680SOL     OW 2083   1.418   1.423   1.618 -0.5475 -0.7480 -0.5817
  680SOL    HW1 2084   1.471   1.378   1.683 -0.9674  2.8823 -0.3295
  680SOL    HW2 2085   1.440   1.378   1.535  1.8330  1.3312 -2.5233
  681SOL     OW 2086   0.001   2.992   0.275 -0.0275 -0.0455 -0.4459
  681SOL    HW1 2087  -0.086   3.030   0.295 -1.9806  1.1162 -2.6338
  681SOL    HW2 2088   0.057   3.055   0.319 -0.2293  0.7678  0.8390
  682SOL     OW 2089   2.122   1.413   0.987 -0.1227  0.6044 -0.2742
  682SOL    HW1 2090   2.186   1.459   1.039 -0.2440  1.7062 -1.7966
  682SOL    HW2 2091   2.043   1.406   1.039 -0.6717  1.6207  0.8921
  683SOL     OW 2092   1.076   0.777   1.827  0.3197 -0.4047 -0.1052
  683SOL    HW1 2093   1.113   0.710   1.887 -1.7388  0.8066 -2.3277
  683SOL    HW2 2094   0.982   0.768   1.855 -2.8297 -1.5664  2.1608
  684SOL     OW 2095   2.105   2.715   1.376 -0.1161  0.0198 -0.9727
  684SOL    HW1 2096   2.117   2.696   1.280  1.7099  1.0051  2.2929
  684SOL    HW2 2097   2.112   2.813   1.387 -0.7054 -2.5407  2.4660
  685SOL     OW 2098   1.781   2.752   2.198 -0.2748 -0.3060 -0.4198
  685SOL    HW1 2099   1.723   2.828   2.175  2.7269 -0.6228  0.3804
  685SOL    HW2 2100   1.843   2.801   2.259 -1.4547 -0.4480 -0.4602
  686SOL     OW 2101   1.650   0.964   2.390  0.2346  0.5354 -0.0187
  686SOL    HW1 2102   1.612   1.048   2.424  1.3508  2.8359 -1.1878
  686SOL    HW2 2103   1.742   0.965   2.420  0.0262 -0.3930  1.1921
  687SOL     OW 2104   0.418   1.834   0.352  0.5576 -0.5342  0.1392
  687SOL    HW1 2105   0.342   1.813   0.290  0.0087 -0.4560 -2.5753
  687SOL    HW2 2106   0.478   1.773   0.315 -2.2516 -0.6477 -1.1034
  688SOL     OW 2107   2.640   1.026   0.515  0.4995  0.1813  0.2009
  688SOL    HW1 2108   2.600   0.935   0.509  1.2288  1.2369  0.0848
  688SOL    HW2 2109   2.728   0.996   0.494 -0.0938 -1.3691 -2.7490
  689SOL     OW 2110   2.188   2.189   1.510  0.7170  0.3454 -0.5533
  689SOL    HW1 2111   2.152   2.257   1.450  0.8934  0.0787 -2.2697
  689SOL    HW2 2112   2.173   2.235   1.595  0.8289  2.4948  0.9036
  690SOL     OW 2113   0.349   1.373   0.677 -0.0582 -0.3084  0.2047
  690SOL    HW1 2114   0.385   1.286   0.704  1.4690  1.7859 -0.5156
  690SOL    HW2 2115   0.373   1.434   0.753  0.3427 -0.8894  1.0612
  691SOL     OW 2116   0.288   0.881   1.630 -0.3281 -1.2077 -0.1722
  691SOL    HW1 2117   0.317   0.935   1.704  0.3578  0.6581 -2.1820
  691SOL    HW2 2118   0.350   0.810   1.632 -0.8161  1.4171  2.1245
  692SOL     OW 2119   0.519   1.474   1.384 -0.0391  0.4662  0.2481
  692SOL    HW1 2120   0.427   1.509   1.380  2.1961  1.5495  1.0775
  692SOL    HW2 2121   0.498   1.380   1.407 -2.0726  0.0636 -0.1219
  693SOL     OW 2122   1.617   0.446   2.843  0.6672 -0.6808 -0.0934
  693SOL    HW1 2123   1.611   0.541   2.826  0.5655 -1.2539  2.1294
  693SOL    HW2 2124   1.625   0.412   2.749 -0.1078 -3.9582  0.5479
  694SOL     OW 2125   2.239   2.061   1.061 -0.7200 -0.3479 -0.2838
  694SOL    HW1 2126   2.329   2.084   1.027  0.8490  1.7874  0.2186
  694SOL    HW2 2127   2.278   2.016   1.141  0.5330  0.9635 -2.3711
  695SOL     OW 2128   2.803   1.038   1.978 -0.0522  0.2180 -0.6728
  695SOL    HW1 2129   2.832   1.126   1.954 -0.8606 -1.2595 -0.6008
  695SOL    HW2 2130   2.887   0.995   1.976 -0.4282  1.2559  0.7179
  696SOL     OW 2131   0.949   1.167   1.574 -0.2939  0.0015  0.4071
  696SOL    HW1 2132   0.928   1.266   1.555 -0.2123  2.8516 -0.0758
  696SOL    HW2 2133   1.050   1.157   1.546  0.8395  0.5550 -1.3146
  697SOL     OW 2134   2.967   2.939   2.983 -0.0021 -0.3988  0.1726
  697SOL    HW1 2135   2.974   2.985   3.062 -0.3742  0.8410  0.5523
  697SOL    HW2 2136   2.876   2.960   2.967  2.8395  1.0383 -1.3508
  698SOL     OW 2137   2.355   1.832   2.463  0.0493 -0.2461 -0.8756
  698SOL    HW1 2138   2.353   1.923   2.434  0.1104 -0.1502 -0.2004
  698SOL    HW2 2139   2.455   1.814   2.479  0.9948 -2.5868  0.2099
  699SOL     OW 2140   0.100   1.723   1.397 -0.1981 -0.2293 -0.1577
  699SOL    HW1 2141   0.078   1.812   1.414 -0.0442 -0.2672  3.9257
  699SOL    HW2 2142   0.031   1.710   1.325 -2.7040  0.4165 -0.3538
  700SOL     OW 2143   2.809   2.860   1.828  0.5891 -0.1388 -0.1305
  700SOL    HW1 2144   2.722   2.895   1.813  0.8516  3.7200 -0.0807
  700SOL    HW2 2145   2.784   2.773   1.869 -1.1502 -1.1380 -1.3969
  701SOL     OW 2146   2.136   0.701   1.040 -0.0370 -0.1860  0.3618
  701SOL    HW1 2147   2.163   0.727   1.132 -0.6898  1.3355  1.8719
  701SOL    HW2 2148   2.122   0.787   0.999  0.8656  0.4638 -1.6310
  702SOL     OW 2149   0.933   2.554   1.883  0.4568 -0.3539 -0.4558
  702SOL    HW1 2150   0.995   2.488   1.906  1.5703 -0.0041  1.1277
  702SOL    HW2 2151   0.854   2.506   1.850  1.4579  0.1012  2.0178
  703SOL     OW 2152   1.539   2.744   1.554  0.0291  0.0602 -0.4551
  703SOL    HW1 2153   1.625   2.794   1.553 -1.0814 -0.6126  0.0556
  703SOL    HW2 2154   1.475   2.814   1.582 -0.0758 -0.0925  1.1326
  704SOL     OW 2155   1.147   1.004   1.923 -0.3225  0.8082 -0.1041
  704SOL    HW1 2156   1.197   0.972   2.004  1.6584  1.1620 -2.6862
  704SOL    HW2 2157   1.105   0.915   1.896 -2.1960  3.3422 -2.2278
  705SOL     OW 2158   2.009   2.410   2.693 -0.5620 -0.4670  0.1277
  705SOL    HW1 2159   2.107   2.429   2.690  0.4024  2.1644  3.0113
  705SOL    HW2 2160   1.973   2.442   2.608  1.2488 -0.7683  0.7005
  706SOL     OW 2161   0.940   0.752   1.325  0.1501 -0.4579 -0.9202
  706SOL    HW1 2162   0.970   0.776   1.417  1.2004  3.3398 -1.5118
  706SOL    HW2 2163   0.976   0.661   1.322  1.4067 -0.6690  2.7378
  707SOL     OW 2164   2.148   1.872   2.693  0.0592 -0.1142  0.7533
  707SOL    HW1 2165   2.093   1.955   2.680 -0.7271  0.7455  1.7098
  707SOL    HW2 2166   2.209   1.877   2.613 -0.3721  0.8941  1.1403
  708SOL     OW 2167   1.755   1.410   1.912 -0.0397  1.2569  0.3047
  708SOL    HW1 2168   1.803   1.462   1.977 -1.1707 -0.2825 -1.0571
  708SOL    HW2 2169   1.690   1.353   1.968  2.8780  2.2898  0.0475
  709SOL     OW 2170   2.540   2.375   0.684  0.0338 -0.8392  0.4005
  709SOL    HW1 2171   2.568   2.362   0.591 -2.4015 -1.4226 -1.1034
  709SOL    HW2 2172   2.491   2.292   0.692 -1.8529 -2.2221 -0.0285
  710SOL     OW 2173   1.363   0.738   0.834  0.1380  0.6127  0.4510
  710SOL    HW1 2174   1.296   0.703   0.898 -1.4817  0.6060  0.9074
  710SOL    HW2 2175   1.411   0.806   0.890  2.5886  1.8038  1.3208
  711SOL     OW 2176   0.620   2.756   2.125  0.0700 -0.7367 -0.1282
  711SOL    HW1 2177   0.554   2.809   2.174  0.0962 -1.1844 -0.7080
  711SOL    HW2 2178   0.693   2.768   2.189 -1.2074 -1.5545 -1.5797
  712SOL     OW 2179   2.634   1.493   2.331 -0.1266 -0.0089  0.3189
  712SOL    HW1 2180   2.716   1.456   2.365 -0.5720  2.3969 -1.0161
  712SOL    HW2 2181   2.581   1.412   2.320  1.0230 -0.2529 -1.3511
  713SOL     OW 2182   0.964   1.292   2.952 -0.2537 -0.0353 -0.0495
  713SOL    HW1 2183   0.990   1.254   3.042  0.9425  2.0363 -1.7225
  713SOL    HW2 2184   0.865   1.295   2.946 -3.4874  0.1455 -0.0142
  714SOL     OW 2185   0.123   2.075   2.393 -0.7698  0.5595 -0.7073
  714SOL    HW1 2186   0.151   1.990   2.426 -2.2909  1.1117 -0.3400
  714SOL    HW2 2187   0.035   2.084   2.419  1.8943 -1.0147  0.7254
  715SOL     OW 2188   1.187   0.569   1.983 -0.6217  0.3844 -0.1140
  715SOL    HW1 2189   1.180   0.500   1.909 -1.8899 -2.7896 -1.9737
  715SOL    HW2 2190   1.288   0.588   1.979  1.4978 -1.9341 -0.7929
  716SOL     OW 2191   2.312   2.189   0.304 -0.8259  0.5883  0.2352
  716SOL    HW1 2192   2.342   2.114   0.351  1.1651 -0.2844 -2.6742
  716SOL    HW2 2193   2.375   2.200   0.229 -0.1658 -1.1877  1.7220
  717SOL     OW 2194   0.727   1.361   0.082  0.1153  0.3343 -0.5596
  717SOL    HW1 2195   0.748   1.460   0.084  1.4276  2.7751  1.7777
  717SOL    HW2 2196   0.764   1.341   0.166 -2.7938  0.9060  2.7302
  718SOL     OW 2197   2.811   1.081   2.521 -0.5104 -0.0349 -0.7572
  718SOL    HW1 2198   2.797   0.989   2.553  0.2280  2.7035 -0.1883
  718SOL    HW2 2199   2.770   1.129   2.593  0.4725  1.1260 -1.9971
  719SOL     OW 2200   0.915   2.825   0.999 -0.0621  0.2870 -0.4566
  719SOL    HW1 2201   0.888   2.885   1.077 -1.0296  0.9373  2.4688
  719SOL    HW2 2202   0.990   2.772   1.038 -0.0719  2.0169  2.7639
  720SOL     OW 2203   2.062   0.651   0.461  0.5515 -0.6078  0.7578
  720SOL    HW1 2204   2.157   0.673   0.437 -2.3549  0.8056 -1.4221
  720SOL    HW2 2205   2.029   0.641   0.372  2.0200 -1.1713  0.1845
  721SOL     OW 2206   0.501   1.919   2.312 -0.3824 -0.2159  0.5352
  721SOL    HW1 2207   0.448   1.996   2.296 -0.6159 -1.7287 -0.0100
  721SOL    HW2 2208   0.576   1.926   2.251 -1.2552 -0.4461  1.6529
  722SOL     OW 2209   1.150   1.769   0.481  0.1927  0.0996  0.2574
  722SOL    HW1 2210   1.115   1.700   0.425 -1.3052 -1.6306  0.0412
  722SOL    HW2 2211   1.061   1.821   0.502 -3.4166  1.2100  2.9976
  723SOL     OW 2212   1.159   2.392   1.315  0.1438 -0.1953  0.1089
  723SOL    HW1 2213   1.066   2.378   1.342 -0.8999 -1.1711  1.9187
  723SOL    HW2 2214   1.161   2.385   1.217 -1.3626 -3.5709  0.7106
  724SOL     OW 2215   0.248   1.002   0.858  0.0739 -0.2581 -0.0096
  724SOL    HW1 2216   0.335   1.029   0.810  1.2338 -0.2861 -1.5489
  724SOL    HW2 2217   0.295   0.952   0.929  0.5112  0.6515 -3.3604
  725SOL     OW 2218   0.966   1.734   0.938  0.1344 -0.2714  0.6805
  725SOL    HW1 2219   0.983   1.692   1.026 -2.8260 -0.6171 -1.5084
  725SOL    HW2 2220   0.893   1.789   0.968  2.0226  0.2954  1.8468
  726SOL     OW 2221   2.479   1.846   0.067 -0.1409 -0.3839 -0.2320
  726SOL    HW1 2222   2.422   1.772   0.095 -0.5292 -4.3186  1.3454
  726SOL    HW2 2223   2.412   1.901   0.019  1.2445  2.2757  1.8053
  727SOL     OW 2224   0.656   1.932   0.642  0.0517 -0.4764 -0.3004
  727SOL    HW1 2225   0.619   1.976   0.723  2.3640 -0.8770 -1.2805
  727SOL    HW2 2226   0.652   1.837   0.665  0.5771  0.0807 -1.2507
  728SOL     OW 2227   0.766   1.784   2.762 -0.2329  0.0242  0.2502
  728SOL    HW1 2228   0.852   1.832   2.747  0.1582 -1.8150 -1.1902
  728SOL    HW2 2229   0.773   1.770   2.859  1.3272  2.1951 -1.3119
  729SOL     OW 2230   2.623   2.638   2.935  0.5266  0.1739 -0.8950
  729SOL    HW1 2231   2.573   2.690   2.870 -1.7880  0.3277  2.6458
  729SOL    HW2 2232   2.687   2.707   2.968 -1.6891 -2.6020  1.5569
  730SOL     OW 2233   2.492   2.831   0.107 -0.3008 -0.3692 -0.4107
  730SOL    HW1 2234   2.573   2.794   0.150 -0.5721 -0.0827 -3.4223
  730SOL    HW2 2235   2.430   2.761   0.145 -3.4933  0.2020 -1.2679
  731SOL     OW 2236   0.070   2.251   0.808  0.1065  0.1454 -0.0654
  731SOL    HW1 2237   0.119   2.308   0.743 -1.0166 -1.5190  0.7507
  731SOL    HW2 2238   0.120   2.173   0.786  0.6428 -1.8110 -2.5093
  732SOL     OW 2239   1.191   2.360   1.055 -0.1939  0.5507 -0.6129
  732SOL    HW1 2240   1.266   2.382   0.991  0.7437 -1.7857 -1.3326
  732SOL    HW2 2241   1.175   2.269   1.028  1.5173 -0.3624 -3.5317
  733SOL     OW 2242   1.709   1.871   2.986  0.3386 -0.1127  0.2482
  733SOL    HW1 2243   1.628   1.817   2.993 -0.1579 -1.8320 -1.2206
  733SOL    HW2 2244   1.699   1.908   2.894  0.0185 -3.1931 -0.5442
  734SOL     OW 2245   2.293   2.690   0.186 -0.1042 -0.1385  0.6418
  734SOL    HW1 2246   2.266   2.761   0.246 -0.5567 -3.5250  1.1170
  734SOL    HW2 2247   2.220   2.628   0.184 -0.1699 -0.3491 -1.3018
  735SOL     OW 2248   1.643   0.248   2.255 -0.7131 -0.8951 -0.1669
  735SOL    HW1 2249   1.682   0.334   2.253 -2.1232 -0.0973  1.0332
  735SOL    HW2 2250   1.564   0.267   2.203 -1.1875 -3.0673  0.9889
  736SOL     OW 2251   2.629   0.877   1.244 -0.1364 -0.1692 -0.3507
  736SOL    HW1 2252   2.635   0.929   1.164 -0.9882  0.4768 -0.4142
  736SOL    HW2 2253   2.647   0.782   1.211  0.1480  0.6899 -0.6902
  737SOL     OW 2254   1.440   1.532   2.463  0.0490  1.2538  0.2040
  737SOL    HW1 2255   1.529   1.510   2.499 -1.6407 -0.4639 -0.2519
  737SOL    HW2 2256   1.427   1.464   2.391  2.0378 -4.4438 -0.1711
  738SOL     OW 2257   2.857   1.866   2.929 -0.7864 -0.3083 -0.5623
  738SOL    HW1 2258   2.837   1.930   3.001  0.9185 -2.0326 -0.1909
  738SOL    HW2 2259   2.765   1.840   2.907 -1.9755 -1.9653 -0.8997
  739SOL     OW 2260   1.305   2.429   2.651  0.5283  0.1670  0.3608
  739SOL    HW1 2261   1.329   2.365   2.722 -0.9986 -2.9213  0.0520
  739SOL    HW2 2262   1.276   2.503   2.706  2.1097  1.3760 -0.2500
  740SOL     OW 2263   1.526   2.060   1.749 -0.4566  0.4992 -0.2273
  740SOL    HW1 2264   1.603   2.068   1.691 -1.7973  0.2042  2.2431
  740SOL    HW2 2265   1.545   2.123   1.822 -2.0134  0.3978  1.5025
  741SOL     OW 2266   2.695   1.376   1.376  0.1751 -0.1588 -0.5476
  741SOL    HW1 2267   2.615   1.344   1.325 -1.3621  0.5283 -0.7666
  741SOL    HW2 2268   2.754   1.416   1.308 -0.7655 -2.9749 -1.0442
  742SOL     OW 2269   0.611   2.668   0.139  0.7928  0.1815 -0.3398
  742SOL    HW1 2270   0.542   2.602   0.144 -1.2024  2.2611 -1.2283
  742SOL    HW2 2271   0.604   2.716   0.223  1.6145  0.4409  0.6081
  743SOL     OW 2272   1.626   2.953   0.061 -0.5030 -0.1631 -0.2416
  743SOL    HW1 2273   1.575   2.912   0.138  1.1008 -1.7289 -0.4320
  743SOL    HW2 2274   1.560   3.023   0.032  2.2939 -0.4565 -1.3506
  744SOL     OW 2275   0.966   0.638   0.822  0.2480 -0.1098  0.1102
  744SOL    HW1 2276   0.923   0.728   0.826 -1.9531  0.7089 -1.3911
  744SOL    HW2 2277   1.010   0.643   0.910  0.9580  0.2888 -0.7090
  745SOL     OW 2278   1.373   2.909   2.560  0.0340 -0.5507  0.6958
  745SOL    HW1 2279   1.414   2.875   2.484  2.2004 -0.7521  0.4370
  745SOL    HW2 2280   1.439   2.890   2.630 -2.0810 -0.7025  1.3689
  746SOL     OW 2281   1.963   0.435   2.391 -0.0085  0.0328 -0.4921
  746SOL    HW1 2282   2.000   0.341   2.414  0.7183 -0.1591 -0.3034
  746SOL    HW2 2283   2.020   0.490   2.451  0.9438 -0.6513  0.1849
  747SOL     OW 2284   0.185   1.689   0.821  0.1597  0.7632  0.3146
  747SOL    HW1 2285   0.231   1.603   0.839  0.4293 -0.6764  1.0656
  747SOL    HW2 2286   0.227   1.689   0.734  0.3295  0.4614  0.9720
  748SOL     OW 2287   3.000   2.971   1.986 -0.1126 -0.1828 -0.5786
  748SOL    HW1 2288   2.919   2.939   1.942 -0.2371  2.5509  0.5081
  748SOL    HW2 2289   3.039   3.029   1.916 -1.1642 -0.5514  0.8686
  749SOL     OW 2290   1.149   2.352   1.843 -0.1570 -0.2577  0.5172
  749SOL    HW1 2291   1.144   2.272   1.898  2.4754  3.1250  2.7348
  749SOL    HW2 2292   1.081   2.329   1.774 -1.8830  0.4814  1.9336
  750SOL     OW 2293   2.519   1.386   0.728 -0.0238  0.3649 -0.4142
  750SOL    HW1 2294   2.536   1.436   0.650  2.4151 -1.1006  0.7352
  750SOL    HW2 2295   2.604   1.403   0.774  0.4313  2.5976  0.4015
  751SOL     OW 2296   2.897   1.678   1.185  0.1738 -0.3756 -0.1643
  751SOL    HW1 2297   2.927   1.597   1.222  4.4376 -0.2921  0.4859
  751SOL    HW2 2298   2.811   1.654   1.154  0.0202  1.2346  0.4177
  752SOL     OW 2299   2.972   1.345   2.730 -0.0210  0.6683  0.2279
  752SOL    HW1 2300   3.002   1.257   2.767  1.6626  0.5388 -1.1972
  752SOL    HW2 2301   2.927   1.374   2.816  1.4326 -0.5615  2.8745
  753SOL     OW 2302   2.409   0.720   1.423 -0.3905  0.2732 -0.1429
  753SOL    HW1 2303   2.472   0.776   1.369 -1.3400 -0.1360  2.2106
  753SOL    HW2 2304   2.449   0.720   1.515 -1.0098  0.2934 -0.2144
  754SOL     OW 2305   0.109   2.532   1.370 -0.4982  0.2600 -0.3129
  754SOL    HW1 2306   0.075   2.520   1.277  0.0373  1.1269 -1.5567
  754SOL    HW2 2307   0.165   2.609   1.346 -1.0690 -0.5037  1.3141
  755SOL     OW 2308   2.068   1.690   0.704 -0.1154 -0.0656  0.1287
  755SOL    HW1 2309   2.140   1.660   0.765 -1.8866  2.9902 -1.0663
  755SOL    HW2 2310   2.013   1.739   0.767 -0.5651  0.2033 -0.0002
  756SOL     OW 2311   0.143   0.447   1.521  0.1767 -0.2328 -0.1401
  756SOL    HW1 2312   0.213   0.385   1.479  0.5778  1.4586  0.2332
  756SOL    HW2 2313   0.081   0.380   1.548 -1.3539  0.9658 -0.5930
  757SOL     OW 2314   0.704   0.957   2.923 -0.0891  0.3064 -0.5217
  757SOL    HW1 2315   0.718   1.025   2.854  0.7243 -1.0880  0.1130
  757SOL    HW2 2316   0.646   1.011   2.971 -1.2816  3.1545 -3.8693
  758SOL     OW 2317   0.969   0.892   2.823 -0.4846 -0.2351 -0.7265
  758SOL    HW1 2318   0.873   0.925   2.826 -0.1422  2.2941  1.6676
  758SOL    HW2 2319   1.019   0.961   2.770 -0.3052 -2.7190  1.7253
  759SOL     OW 2320   2.454   1.144   0.771  0.4709 -0.0244 -0.6617
  759SOL    HW1 2321   2.542   1.116   0.787  0.1331  0.9903  3.9043
  759SOL    HW2 2322   2.458   1.242   0.764 -2.3668 -3.4888 -1.8223
  760SOL     OW 2323   0.737   1.614   1.834  0.2262 -0.2132 -0.1176
  760SOL    HW1 2324   0.703   1.649   1.745 -0.2562  1.1688  0.1088
  760SOL    HW2 2325   0.686   1.526   1.842 -0.1409 -0.7834 -1.7397
  761SOL     OW 2326   1.782   0.467   2.205 -0.4223 -0.7630  0.5661
  761SOL    HW1 2327   1.849   0.454   2.131 -0.1717  1.9718  1.1905
  761SOL    HW2 2328   1.848   0.453   2.283  2.2988  0.1101  0.8149
  762SOL     OW 2329   0.950   2.814   2.185 -0.1567 -0.0053  0.1493
  762SOL    HW1 2330   0.932   2.855   2.273 -1.8481  0.4624  0.5566
  762SOL    HW2 2331   1.038   2.787   2.209  0.0175 -0.9544 -1.3541
  763SOL     OW 2332   0.558   1.203   1.704  0.1497  0.2295 -0.0509
  763SOL    HW1 2333   0.579   1.275   1.769 -0.4072 -0.7531  0.3293
  763SOL    HW2 2334   0.487   1.246   1.653  0.0096 -2.5534 -0.2379
  764SOL     OW 2335   1.449   0.701   1.539 -0.1988 -0.3694  0.5707
  764SOL    HW1 2336   1.527   0.654   1.503 -0.7757 -2.5896  0.1211
  764SOL    HW2 2337   1.473   0.712   1.631  0.2458 -0.6066  0.5847
  765SOL     OW 2338   0.342   2.123   2.205  0.1196 -0.2688  0.1077
  765SOL    HW1 2339   0.290   2.117   2.285  1.0952 -2.5690 -0.7239
  765SOL    HW2 2340   0.275   2.093   2.144  2.7536  0.1942  3.0059
  766SOL     OW 2341   2.671   0.330   0.901  0.2849  0.4177  0.0323
  766SOL    HW1 2342   2.702   0.243   0.872 -0.8731 -0.1754  1.3028
  766SOL    HW2 2343   2.721   0.380   0.833 -0.2247  0.4711  1.3484
  767SOL     OW 2344   1.299   1.975   0.554  0.0841 -0.0439 -0.3663
  767SOL    HW1 2345   1.258   1.890   0.518 -1.7841  0.7500  1.3780
  767SOL    HW2 2346   1.224   2.027   0.592 -0.3268 -0.9781 -0.3631
  768SOL     OW 2347   0.640   2.935   1.461 -0.1407  0.1457  0.0963
  768SOL    HW1 2348   0.600   2.855   1.429  2.4489 -1.5121  0.4718
  768SOL    HW2 2349   0.574   2.964   1.533 -2.3440  2.2316  1.8274
  769SOL     OW 2350   1.176   2.700   0.054 -0.6008 -0.3934  0.5548
  769SOL    HW1 2351   1.258   2.648   0.076  1.1453 -0.6344  3.0128
  769SOL    HW2 2352   1.115   2.671   0.128  0.7466 -1.1493  0.2033
  770SOL     OW 2353   2.975   1.557   2.207  0.2496  0.3043 -0.2394
  770SOL    HW1 2354   2.960   1.512   2.288  0.0023  2.0790 -1.0867
  770SOL    HW2 2355   2.988   1.484   2.147 -0.4355  2.0626  1.2445
  771SOL     OW 2356   0.807   2.272   2.117 -0.0997 -0.0862  0.4032
  771SOL    HW1 2357   0.717   2.309   2.112 -3.3382  0.8051 -2.7205
  771SOL    HW2 2358   0.783   2.180   2.143 -0.6413  1.1992  2.4009
  772SOL     OW 2359   0.079   1.690   2.539  0.5332 -0.4543 -0.1541
  772SOL    HW1 2360   0.021   1.762   2.553 -1.2035 -0.0608 -1.4355
  772SOL    HW2 2361   0.166   1.731   2.503  2.1071  0.0805 -1.4687
  773SOL     OW 2362   2.875   1.409   0.292 -0.1615  0.3254 -0.1011
  773SOL    HW1 2363   2.954   1.370   0.245 -2.7484 -2.3509  0.0781
  773SOL    HW2 2364   2.813   1.332   0.275 -0.2074 -0.4372 -0.1594
  774SOL     OW 2365   0.037   2.452   0.381 -0.3130 -0.4672 -0.0727
  774SOL    HW1 2366   0.004   2.367   0.350  3.8048 -2.5247  1.8113
  774SOL    HW2 2367   0.104   2.420   0.440 -1.1156  1.4113 -0.0338
  775SOL     OW 2368   0.484   2.964   0.069  0.3608  0.0913 -0.4586
  775SOL    HW1 2369   0.407   2.911   0.086 -1.1067  0.9912  1.0436
  775SOL    HW2 2370   0.533   2.960   0.154  2.5953 -0.3720 -0.3070
  776SOL     OW 2371   0.559   1.675   0.110  0.2119  0.0422 -0.0768
  776SOL    HW1 2372   0.614   1.660   0.188 -1.0761  2.1106 -0.8158
  776SOL    HW2 2373   0.614   1.636   0.044 -1.4151 -1.0798 -0.3955
  777SOL     OW 2374   2.389   2.613   2.199 -0.4210  0.1729  0.1030
  777SOL    HW1 2375   2.385   2.524   2.242 -0.5236 -0.8586  0.8812
  777SOL    HW2 2376   2.456   2.594   2.132 -2.2963  1.5440 -0.1176
  778SOL     OW 2377   0.213   0.981   0.121 -0.0487  0.2544  0.1539
  778SOL    HW1 2378   0.144   0.936   0.065 -0.4103  1.7748 -3.5038
  778SOL    HW2 2379   0.180   0.946   0.211  0.7099 -2.0159  2.0033
  779SOL     OW 2380   1.590   2.054   2.324  0.1808  0.5921  0.3041
  779SOL    HW1 2381   1.662   2.045   2.392 -1.2450  0.9375  0.3016
  779SOL    HW2 2382   1.512   2.069   2.382  0.8976  1.1141  2.6390
  780SOL     OW 2383   1.258   2.235   1.510  0.3468 -0.2170 -0.4239
  780SOL    HW1 2384   1.167   2.192   1.499  0.0946 -2.0660 -0.7902
  780SOL    HW2 2385   1.261   2.281   1.425  0.0686  0.2727  2.9439
  781SOL     OW 2386   1.800   0.748   0.558 -0.1485 -0.2084 -0.2874
  781SOL    HW1 2387   1.883   0.726   0.525  0.8739 -2.7111  0.0473
  781SOL    HW2 2388   1.750   0.767   0.475 -1.0759  2.4886 -3.0308
  782SOL     OW 2389   1.183   0.535   0.352  0.2026  0.1511 -0.4042
  782SOL    HW1 2390   1.161   0.547   0.447  1.1456  0.0822 -2.3295
  782SOL    HW2 2391   1.150   0.621   0.324 -0.9694 -1.7697  3.7363
  783SOL     OW 2392   1.551   0.610   1.151  0.2029 -0.7561  0.4446
  783SOL    HW1 2393   1.586   0.700   1.138 -0.3646  2.7986  2.6439
  783SOL    HW2 2394   1.592   0.582   1.233 -0.9685 -0.6083 -1.3274
  784SOL     OW 2395   0.602   0.002   0.741  0.4621  0.2033 -0.1516
  784SOL    HW1 2396   0.686   0.009   0.785  0.2492  3.1208 -2.3199
  784SOL    HW2 2397   0.564   0.090   0.767 -1.0240  2.7894  0.0595
  785SOL     OW 2398   0.935   1.911   1.547 -0.3430  0.3992  0.6408
  785SOL    HW1 2399   0.909   1.858   1.472  0.6150 -0.0012  2.2992
  785SOL    HW2 2400   0.947   1.840   1.614  0.3218  1.2724 -1.8301
  786SOL     OW 2401   1.746   0.741   0.820  0.4726 -0.5361 -0.0917
  786SOL    HW1 2402   1.798   0.671   0.855  0.2092 -0.7487 -1.0549
  786SOL    HW2 2403   1.771   0.748   0.731 -0.2779 -0.6087  4.8673
  787SOL     OW 2404   2.032   1.026   0.805  0.3106 -0.1377  0.0801
  787SOL    HW1 2405   1.999   1.117   0.795  2.3254 -0.1531  2.1558
  787SOL    HW2 2406   2.017   0.984   0.721 -2.8901  2.0906 -0.4556
  788SOL     OW 2407   0.872   0.777   0.093  0.1609  0.3419  0.7558
  788SOL    HW1 2408   0.925   0.788   0.019  1.7296  3.0824 -2.5042
  788SOL    HW2 2409   0.790   0.810   0.064  2.6695 -1.8126  2.8122
  789SOL     OW 2410   0.559   0.252   0.850  0.0799  1.0890 -0.1747
  789SOL    HW1 2411   0.590   0.246   0.940  0.9426 -2.1802  0.9555
  789SOL    HW2 2412   0.635   0.311   0.821 -0.9981 -0.5988  1.8428
  790SOL     OW 2413   2.302   2.456   1.371 -0.4627  0.6131 -0.6997
  790SOL    HW1 2414   2.309   2.553   1.389  1.1422 -1.2011  3.5790
  790SOL    HW2 2415   2.205   2.454   1.360  2.2266 -0.8500 -2.9135
  791SOL     OW 2416   1.577   2.562   1.745 -0.2846 -0.2956  0.6763
  791SOL    HW1 2417   1.594   2.623   1.675  1.8510  1.4736  0.1832
  791SOL    HW2 2418   1.480   2.549   1.738  0.5712  0.3241 -0.0273
  792SOL     OW 2419   2.477   2.260   1.440  0.4636 -0.3169 -0.2602
  792SOL    HW1 2420   2.519   2.281   1.529  0.7740  3.0194  2.0230
  792SOL    HW2 2421   2.415   2.337   1.431  0.1628  0.5206 -2.5795
  793SOL     OW 2422   1.681   1.624   0.638  0.1568 -0.7246 -0.3860
  793SOL    HW1 2423   1.688   1.664   0.551  0.1867 -3.2726 -2.6489
  793SOL    HW2 2424   1.609   1.680   0.676 -2.4712 -0.7249 -1.1529
  794SOL     OW 2425   0.600   1.233   2.122  0.0408 -0.2364 -0.0567
  794SOL    HW1 2426   0.625   1.161   2.182 -1.0849  3.6329  0.2354
  794SOL    HW2 2427   0.512   1.203   2.097  1.6692  2.2981  1.2531
  795SOL     OW 2428   1.894   0.697   1.411  0.2359  0.4398 -0.1179
  795SOL    HW1 2429   1.968   0.681   1.355  2.0858  1.1231  0.3800
  795SOL    HW2 2430   1.848   0.746   1.341  0.3381 -1.1729 -1.4660
  796SOL     OW 2431   0.508   2.551   1.984  0.3660 -0.6399 -0.2695
  796SOL    HW1 2432   0.522   2.474   2.040 -3.1707  0.1875 -3.1974
  796SOL    HW2 2433   0.541   2.625   2.044  0.0129  0.7589 -0.8794
  797SOL     OW 2434   0.621   0.794   1.464  0.4455  0.2602 -0.1651
  797SOL    HW1 2435   0.586   0.771   1.554  2.4918 -1.7507  0.5551
  797SOL    HW2 2436   0.662   0.875   1.483 -0.0196 -0.5243  1.2580
  798SOL     OW 2437   0.860   0.680   1.087  0.1749 -0.3202 -0.4863
  798SOL    HW1 2438   0.948   0.712   1.088  0.8257  0.2834  0.6652
  798SOL    HW2 2439   0.833   0.699   1.180  0.7512  0.2040 -1.6189
  799SOL     OW 2440   1.129   1.015   0.902  0.1264  0.5200 -0.0580
  799SOL    HW1 2441   1.152   0.979   0.817 -1.8397 -1.7482  1.5885
  799SOL    HW2 2442   1.174   1.099   0.916  0.4498 -1.4690 -0.5290
  800SOL     OW 2443   1.642   2.384   2.659  0.2641 -0.0418  0.2803
  800SOL    HW1 2444   1.720   2.333   2.643  0.1900  0.4591 -0.6574
  800SOL    HW2 2445   1.644   2.443   2.585  0.9680 -1.4685  1.8389
  801SOL     OW 2446   0.735   2.664   1.296  0.2383 -0.7063  0.3353
  801SOL    HW1 2447   0.678   2.638   1.373  3.1489  1.4318 -0.6828
  801SOL    HW2 2448   0.683   2.616   1.229 -2.0117 -0.0959 -1.2091
  802SOL     OW 2449   0.038   2.695   0.583  0.1920 -0.2634 -0.1551
  802SOL    HW1 2450   0.127   2.730   0.579  1.7746 -1.1463 -2.9858
  802SOL    HW2 2451   0.023   2.710   0.488  0.1379 -2.0254  1.6675
  803SOL     OW 2452   1.513   0.742   2.447  0.4299 -0.1232  0.4944
  803SOL    HW1 2453   1.579   0.807   2.417  1.9495  0.3387 -0.1650
  803SOL    HW2 2454   1.432   0.792   2.439 -0.6123 -0.1344  0.1310
  804SOL     OW 2455   2.167   0.341   0.574 -0.0513  0.4225  0.2771
  804SOL    HW1 2456   2.094   0.395   0.611 -0.1981 -1.3466  0.1021
  804SOL    HW2 2457   2.207   0.299   0.657  1.2623 -0.7242  0.0600
  805SOL     OW 2458   1.171   1.030   0.400 -0.0344 -0.4639  0.0709
  805SOL    HW1 2459   1.143   0.934   0.387 -0.7916  0.0851 -0.2551
  805SOL    HW2 2460   1.209   1.030   0.489 -3.1999  0.2670  0.4132
  806SOL     OW 2461   2.905   1.032   1.207 -0.4896  0.2516 -0.1657
  806SOL    HW1 2462   2.911   1.118   1.172  2.4418 -2.4684 -1.9700
  806SOL    HW2 2463   2.837   0.989   1.150  1.1609 -0.7124 -1.4767
  807SOL     OW 2464   2.496   1.759   1.714  0.3856 -0.2419  0.4136
  807SOL    HW1 2465   2.578   1.784   1.755  1.2543  1.0767 -2.9270
  807SOL    HW2 2466   2.527   1.683   1.659  1.9811 -0.5543  0.5564
  808SOL     OW 2467   0.568   0.375   2.514 -0.0808  0.2125 -0.0261
  808SOL    HW1 2468   0.614   0.410   2.439 -0.3575  0.4876 -3.1007
  808SOL    HW2 2469   0.485   0.350   2.469  0.7492 -0.1118 -1.3100
  809SOL     OW 2470   0.330   0.004   1.990  0.0137  0.7486 -0.4934
  809SOL    HW1 2471   0.326  -0.032   2.080 -0.5413 -0.5126  0.7195
  809SOL    HW2 2472   0.296  -0.060   1.921 -2.6831  2.7678 -0.0614
  810SOL     OW 2473   2.204   2.744   2.899 -0.7013 -0.2752 -0.0325
  810SOL    HW1 2474   2.151   2.827   2.895  1.2660 -1.7517  1.3204
  810SOL    HW2 2475   2.230   2.740   2.992  0.4616 -0.2090 -2.2009
  811SOL     OW 2476   0.488   1.819   2.664 -0.5308  0.4776  0.0631
  811SOL    HW1 2477   0.494   1.841   2.749  1.3662 -0.8426 -3.0790
  811SOL    HW2 2478   0.580   1.834   2.634  2.6804 -0.4732 -2.2867
  812SOL     OW 2479   2.515   0.294   1.707  0.2955 -0.1809 -0.3962
  812SOL    HW1 2480   2.419   0.281   1.692 -1.7377  1.6215 -0.3853
  812SOL    HW2 2481   2.550   0.217   1.651  0.9563 -2.7363 -1.4565
  813SOL     OW 2482   0.070   1.398   2.017  0.3078 -0.5306 -0.4817
  813SOL    HW1 2483   0.099   1.311   2.049  0.2050  0.0303  2.2071
  813SOL    HW2 2484  -0.010   1.376   1.957  1.5406 -1.0024  1.1762
  814SOL     OW 2485   0.275   0.058   1.194  0.0125  0.0569 -1.0656
  814SOL    HW1 2486   0.260   0.122   1.119 -0.1574  2.3464 -1.6330
  814SOL    HW2 2487   0.333  -0.005   1.157  0.5868  3.1063 -2.1584
  815SOL     OW 2488   2.089   1.126   2.075 -0.4650  0.7097  0.8583
  815SOL    HW1 2489   2.022   1.139   2.005  1.8978  1.7548  0.4531
  815SOL    HW2 2490   2.164   1.081   2.028  2.1093 -0.3280 -1.8384
  816SOL     OW 2491   2.526   1.863   0.599 -0.1071  0.4866  0.2665
  816SOL    HW1 2492   2.556   1.927   0.530  0.0375  0.6441  1.3173
  816SOL    HW2 2493   2.601   1.856   0.656  1.5938  1.2483 -1.4910
  817SOL     OW 2494   2.270   0.468   1.008  0.3444 -0.3845  0.3541
  817SOL    HW1 2495   2.200   0.395   1.010  0.8861  0.3858 -1.6550
  817SOL    HW2 2496   2.208   0.545   1.019  0.0040  2.6078  3.1619
  818SOL     OW 2497   0.564   0.128   2.284  0.6316  0.3593  0.4273
  818SOL    HW1 2498   0.514   0.049   2.252  1.1182 -1.3462 -2.6676
  818SOL    HW2 2499   0.579   0.107   2.378  2.3508  1.7536  0.8110
  819SOL     OW 2500   2.204   1.594   0.476  0.3085 -0.0388  0.0447
  819SOL    HW1 2501   2.231   1.527   0.542 -2.1049  0.5351 -2.6461
  819SOL    HW2 2502   2.149   1.650   0.532 -0.8223 -1.0209 -2.0274
  820SOL     OW 2503   0.798   0.395   0.853  0.1871 -0.3008  0.8589
  820SOL    HW1 2504   0.847   0.478   0.857  2.9649 -1.7540  1.9410
  820SOL    HW2 2505   0.869   0.340   0.824 -2.1530 -1.2321  1.3844
  821SOL     OW 2506   1.160   0.782   1.560  0.0644 -0.3154  0.5838
  821SOL    HW1 2507   1.142   0.761   1.655 -2.8415 -0.2929 -0.4089
  821SOL    HW2 2508   1.256   0.757   1.561  2.6742 -2.5545 -0.5416
  822SOL     OW 2509   2.326   1.585   2.402  0.5252 -0.1265  0.6884
  822SOL    HW1 2510   2.362   1.554   2.484  1.2737 -0.3954  0.3271
  822SOL    HW2 2511   2.331   1.682   2.422  1.5457 -1.3409 -0.7201
  823SOL     OW 2512   2.573   1.109   2.940 -0.1787  0.3126 -0.1550
  823SOL    HW1 2513   2.501   1.063   2.897  2.3742 -0.3612 -3.0587
  823SOL    HW2 2514   2.534   1.204   2.937  3.1015  1.1095 -2.3472
  824SOL     OW 2515   2.472   0.824   2.253  0.0366  0.4124  0.3150
  824SOL    HW1 2516   2.420   0.892   2.200  0.3606  2.3956 -1.0802
  824SOL    HW2 2517   2.448   0.742   2.204 -1.9230 -1.0975 -1.2329
  825SOL     OW 2518   1.085   1.569   0.323  0.0373  0.8748  0.1567
  825SOL    HW1 2519   1.010   1.504   0.341  0.7007  0.6942  0.8123
  825SOL    HW2 2520   1.133   1.546   0.243 -0.0497  2.2353  0.5580
  826SOL     OW 2521   2.546   2.836   2.777  0.0912  0.3488 -0.1610
  826SOL    HW1 2522   2.532   2.931   2.772  4.2034 -3.5592  2.4268
  826SOL    HW2 2523   2.558   2.805   2.690  1.2706  1.6524  1.7514
  827SOL     OW 2524   0.262   1.121   0.430  0.4936 -0.0814 -0.7648
  827SOL    HW1 2525   0.310   1.165   0.356 -0.5397 -0.5167 -1.1744
  827SOL    HW2 2526   0.212   1.048   0.390 -0.2124 -2.2693  2.9407
  828SOL     OW 2527   1.083   2.605   0.281 -0.4629 -0.3974 -0.0916
  828SOL    HW1 2528   1.045   2.662   0.347  0.7558 -0.0203  0.1741
  828SOL    HW2 2529   1.011   2.545   0.248  0.8713 -2.0883  0.1607
  829SOL     OW 2530   0.512   0.552   2.070  0.4811  0.7314 -0.6060
  829SOL    HW1 2531   0.571   0.549   2.144 -1.7479  0.6397  0.3332
  829SOL    HW2 2532   0.547   0.472   2.029  3.5561 -1.4613  0.4010
  830SOL     OW 2533   1.792   1.893   0.763 -0.8996  0.6263 -0.0146
  830SOL    HW1 2534   1.826   1.907   0.672  2.0991 -0.4502  0.4066
  830SOL    HW2 2535   1.695   1.888   0.743 -2.7381 -2.1341  0.7585
  831SOL     OW 2536   0.903   0.001   1.682 -0.0624 -0.2814  0.2424
  831SOL    HW1 2537   0.808  -0.025   1.699 -0.8201  1.2376 -0.2935
  831SOL    HW2 2538   0.939  -0.066   1.746 -3.6493  1.5882  1.7888
  832SOL     OW 2539   0.723   2.047   0.089 -0.3654 -0.7710 -0.4849
  832SOL    HW1 2540   0.732   2.138   0.045 -1.1364 -2.3590 -0.1888
  832SOL    HW2 2541   0.638   2.053   0.134 -0.3531  1.2190 -0.5530
  833SOL     OW 2542   2.977   2.571   1.606 -0.1948 -0.1902 -0.0497
  833SOL    HW1 2543   2.984   2.547   1.511  0.3927 -0.0436  0.4983
  833SOL    HW2 2544   3.064   2.539   1.647  3.2680  2.7264  2.4042
  834SOL     OW 2545   1.016   0.465   0.607  0.2190 -0.6556 -0.3415
  834SOL    HW1 2546   0.982   0.517   0.686  0.0957  1.0189  0.9155
  834SOL    HW2 2547   1.075   0.400   0.654  1.0727 -0.1482  1.9296
  835SOL     OW 2548   1.246   1.538   0.876  0.1787  0.1221  0.3095
  835SOL    HW1 2549   1.165   1.512   0.930  0.5878 -1.3309  3.3143
  835SOL    HW2 2550   1.202   1.613   0.837  1.2152  1.1474  0.4716
  836SOL     OW 2551   1.433   1.305   0.138 -0.1773 -0.2562 -0.1231
  836SOL    HW1 2552   1.413   1.360   0.216 -1.4126  2.7406  1.3207
  836SOL    HW2 2553   1.526   1.289   0.150 -1.6713  1.3279  1.2446
  837SOL     OW 2554   0.089   0.245   0.372  0.0475 -0.4218  0.0251
  837SOL    HW1 2555   0.190   0.243   0.371 -0.1526 -1.4572  1.6329
  837SOL    HW2 2556   0.075   0.315   0.442 -0.5178 -2.1644 -0.0939
  838SOL     OW 2557   0.058   1.224   0.564 -0.2403  0.0542  0.1964
  838SOL    HW1 2558   0.003   1.148   0.535  1.1993 -0.4618  1.4815
  838SOL    HW2 2559   0.150   1.194   0.535 -1.9780 -3.6168 -0.9599
  839SOL     OW 2560   0.281   2.415   0.095  0.0231 -0.6572  0.9253
  839SOL    HW1 2561   0.335   2.383   0.166  0.3181 -0.1134 -2.4051
  839SOL    HW2 2562   0.349   2.450   0.037 -1.8164  1.0396  0.3168
  840SOL     OW 2563   0.203   2.443   0.645  0.2839  0.2510 -0.1978
  840SOL    HW1 2564   0.287   2.480   0.633 -0.9029 -0.1777  2.8702
  840SOL    HW2 2565   0.138   2.517   0.637  0.2732  1.3272  0.0159
  841SOL     OW 2566   0.413   1.499   0.887  0.0536 -0.4212  0.3405
  841SOL    HW1 2567   0.458   1.582   0.876 -0.6217 -1.4034  0.6039
  841SOL    HW2 2568   0.439   1.469   0.979  0.0635  0.0674  0.3727
  842SOL     OW 2569   0.115   1.228   0.847  0.2548  0.3381  0.4112
  842SOL    HW1 2570   0.173   1.147   0.843  1.8142 -1.8422  0.9261
  842SOL    HW2 2571   0.121   1.260   0.751 -1.4463  0.9860 -1.8790
  843SOL     OW 2572   2.429   2.714   1.375 -0.1063 -0.1183 -0.1204
  843SOL    HW1 2573   2.430   2.807   1.384 -2.3508  0.3735 -4.0531
  843SOL    HW2 2574   2.502   2.689   1.425  0.8651 -0.6334 -1.4176
  844SOL     OW 2575   0.844   1.325   2.067 -0.0989 -0.3796  0.3530
  844SOL    HW1 2576   0.740   1.314   2.065 -1.3753  0.5838  3.0942
  844SOL    HW2 2577   0.883   1.262   2.000  1.6081 -0.2961  2.7010
  845SOL     OW 2578   1.066   1.146   2.748  0.4228  0.0496 -0.3453
  845SOL    HW1 2579   1.018   1.216   2.799  1.0447  0.0865 -1.3450
  845SOL    HW2 2580   1.143   1.134   2.809  0.1339 -3.5698 -0.7098
  846SOL     OW 2581   0.075   1.346   1.628  0.2698 -0.2101 -0.0257
  846SOL    HW1 2582   0.122   1.259   1.641 -1.8968  2.4941  3.7365
  846SOL    HW2 2583  -0.009   1.310   1.605  1.3709 -1.5620 -0.1779
  847SOL     OW 2584   1.890   0.802   1.673  0.3427  0.4001  0.2329
  847SOL    HW1 2585   1.793   0.789   1.683 -1.6714  1.6561  1.1672
  847SOL    HW2 2586   1.912   0.753   1.590 -2.1245 -1.5912 -2.9481
  848SOL     OW 2587   1.211   1.048   1.502  0.1747 -0.0179  0.1627
  848SOL    HW1 2588   1.308   1.053   1.509 -3.0837  0.8993  1.9734
  848SOL    HW2 2589   1.182   0.954   1.524 -2.5623  1.0419 -2.8806
  849SOL     OW 2590   2.960   1.865   0.568  0.0597 -0.1294 -0.1616
  849SOL    HW1 2591   2.948   1.774   0.598 -1.0826  1.5258  2.4504
  849SOL    HW2 2592   3.037   1.849   0.510 -1.4432  0.8002 -1.1477
  850SOL     OW 2593   1.484   1.021   1.595 -0.2077  0.2006 -0.1495
  850SOL    HW1 2594   1.568   1.065   1.601 -1.9510 -1.0828  3.6180
  850SOL    HW2 2595   1.505   0.948   1.535  0.1326  1.4345 -2.3096
  851SOL     OW 2596   0.274   2.146   1.112 -0.1584 -0.2281 -0.0740
  851SOL    HW1 2597   0.265   2.244   1.113 -1.4120 -2.3314  1.1831
  851SOL    HW2 2598   0.184   2.126   1.085  0.6491 -3.3536  2.8661
  852SOL     OW 2599   0.466   2.496   2.932 -0.2635 -0.3247 -0.1332
  852SOL    HW1 2600   0.506   2.588   2.917  2.5233 -0.3046 -0.1633
  852SOL    HW2 2601   0.490   2.448   2.853 -1.6079  0.6073 -2.2071
  853SOL     OW 2602   2.624   2.760   0.517  0.0118 -0.0065  0.6548
  853SOL    HW1 2603   2.576   2.840   0.491  1.1243 -1.5874  2.0586
  853SOL    HW2 2604   2.657   2.733   0.430 -1.2487  0.7251 -0.9471
  854SOL     OW 2605   0.676   2.963   1.184  0.0452 -0.3628 -0.5693
  854SOL    HW1 2606   0.688   2.931   1.274  2.7726 -0.3148 -0.5494
  854SOL    HW2 2607   0.694   3.060   1.198  3.0517  0.9475 -0.6309
  855SOL     OW 2608   1.018   0.199   0.874 -0.0519  0.2932  0.2181
  855SOL    HW1 2609   1.021   0.180   0.970 -1.7900 -0.1523  0.8596
  855SOL    HW2 2610   0.976   0.118   0.842 -2.1475  0.2371 -2.0891
  856SOL     OW 2611   0.978   0.194   1.153  0.3332 -0.4217 -0.0473
  856SOL    HW1 2612   0.924   0.148   1.219 -0.3327 -0.4352 -3.1823
  856SOL    HW2 2613   1.009   0.271   1.191 -0.3256 -1.7339 -1.1815
  857SOL     OW 2614   0.366   1.827   1.019  0.3083 -0.0305  0.2878
  857SOL    HW1 2615   0.294   1.782   0.974  1.9002  1.0924 -0.8498
  857SOL    HW2 2616   0.320   1.843   1.106 -0.0101  0.2212  0.5445
  858SOL     OW 2617   1.717   2.698   0.761 -0.2382 -0.4153 -0.5251
  858SOL    HW1 2618   1.679   2.702   0.671 -1.1805 -2.9369 -1.6310
  858SOL    HW2 2619   1.705   2.794   0.795  2.7261 -2.3166  1.8150
  859SOL     OW 2620   0.612   1.326   2.478  0.2649  0.0099  0.4126
  859SOL    HW1 2621   0.553   1.380   2.415 -0.5923  0.0518 -1.3863
  859SOL    HW2 2622   0.622   1.390   2.551  1.8202  0.2989  1.6414
  860SOL     OW 2623   0.010   2.095   1.023  0.0749  0.3024 -0.4721
  860SOL    HW1 2624   0.002   2.175   0.971  1.1055 -0.4477  1.1933
  860SOL    HW2 2625  -0.081   2.099   1.051 -1.8287 -2.2498 -1.2620
  861SOL     OW 2626   2.548   1.536   2.966  0.1683  0.3757  0.5157
  861SOL    HW1 2627   2.549   1.530   3.067 -0.1599 -1.1350 -0.7277
  861SOL    HW2 2628   2.498   1.458   2.947 -0.3080  0.9867 -2.3063
  862SOL     OW 2629   2.159   1.918   1.461  0.3537 -0.7709  0.1553
  862SOL    HW1 2630   2.188   2.012   1.474 -0.4489 -0.4145 -1.3105
  862SOL    HW2 2631   2.074   1.949   1.419  1.8000 -0.7803  0.9952
  863SOL     OW 2632   2.400   2.039   1.294  0.1679  0.1484  0.4997
  863SOL    HW1 2633   2.425   1.982   1.368 -1.5500  1.9570  2.6362
  863SOL    HW2 2634   2.406   2.124   1.345  2.8103  1.8012  0.7676
  864SOL     OW 2635   2.923   2.202   1.961 -0.3167  0.3243 -0.3685
  864SOL    HW1 2636   3.015   2.197   1.989 -2.4721 -0.5370 -2.6028
  864SOL    HW2 2637   2.932   2.193   1.860  0.1150 -1.1599 -0.5171
  865CL      CL 2638   0.520   2.525   1.149 -0.4460  0.3216 -0.0584
   3.00000   3.00000   3.00000
