TITLE
Protein in water
END
POSITION
    1 ACE   CH3        1    0.754174471    0.835401893    1.795578837
    1 ACE   HH31       2    0.776547313    0.821380794    1.902909279
    1 ACE   HH32       3    0.703927040    0.938401222    1.798869967
    1 ACE   HH33       4    0.679121435    0.766570032    1.757592916
    1 ACE   C          5    0.873597980    0.822651803    1.715083838
    1 ACE   O          6    0.858377457    0.770524502    1.605962873
    2 ALA   N          7    0.990343273    0.874580324    1.764028668
    2 ALA   HN         8    0.985607445    0.935815871    1.843743324
    2 ALA   CA         9    1.118518710    0.872613311    1.693895698
    2 ALA   HA        10    1.103553295    0.911266506    1.591239572
    2 ALA   CB        11    1.213840842    0.969708443    1.758092523
    2 ALA   HB1       12    1.170969963    1.073874593    1.749106765
    2 ALA   HB2       13    1.232519746    0.949038923    1.865819693
    2 ALA   HB3       14    1.309132218    0.977475226    1.702235818
    2 ALA   C         15    1.184303761    0.732645452    1.707384229
    2 ALA   O         16    1.263891816    0.687997699    1.623715281
    3 ARG   N         17    1.151910424    0.657056272    1.816676140
    3 ARG   HN        18    1.082794785    0.686752379    1.876939178
    3 ARG   CA        19    1.210885644    0.523948729    1.828475833
    3 ARG   HA        20    1.314945340    0.548082232    1.823839784
    3 ARG   CB        21    1.182599306    0.463945299    1.967762828
    3 ARG   HB1       22    1.073466897    0.473864704    1.986116767
    3 ARG   HB2       23    1.213927627    0.361283958    1.969278574
    3 ARG   CG        24    1.260320187    0.542166650    2.086174965
    3 ARG   HG1       25    1.229933858    0.486061364    2.180222750
    3 ARG   HG2       26    1.368787646    0.550670564    2.071992636
    3 ARG   CD        27    1.224406719    0.685998738    2.129635096
    3 ARG   HD1       28    1.272007704    0.707166553    2.228121281
    3 ARG   HD2       29    1.257775307    0.752819419    2.048120737
    3 ARG   NE        30    1.077240944    0.698596716    2.137528419
    3 ARG   HE        31    1.012619972    0.628232121    2.126896858
    3 ARG   CZ        32    1.017786503    0.817899108    2.160876036
    3 ARG   NH1       33    1.084460020    0.933825612    2.187937498
    3 ARG   HH11      34    1.184968829    0.934129536    2.186102629
    3 ARG   HH12      35    1.036508083    1.010104299    2.236413479
    3 ARG   NH2       36    0.884261549    0.818908870    2.164735079
    3 ARG   HH21      37    0.839931786    0.732841611    2.143088341
    3 ARG   HH22      38    0.836640120    0.907816887    2.188372135
    3 ARG   C         39    1.175484896    0.419681191    1.712048292
    3 ARG   O         40    1.071469426    0.419307500    1.643236041
    4 ASN   N         41    1.280846596    0.335462391    1.686373830
    4 ASN   HN        42    1.365585208    0.363806129    1.735492110
    4 ASN   CA        43    1.291426420    0.218229637    1.588698030
    4 ASN   HA        44    1.221891880    0.245829314    1.511584997
    4 ASN   CB        45    1.432197094    0.192032278    1.539290667
    4 ASN   HB1       46    1.431521058    0.114050098    1.454286814
    4 ASN   HB2       47    1.503578186    0.167888924    1.621932864
    4 ASN   CG        48    1.494094968    0.315551549    1.475365877
    4 ASN   OD1       49    1.564683914    0.389641315    1.544170499
    4 ASN   ND2       50    1.472817540    0.337514460    1.344324827
    4 ASN   HD21      51    1.541111588    0.400367141    1.308961034
    4 ASN   HD22      52    1.413481593    0.275399417    1.293244839
    4 ASN   C         53    1.217019439    0.096249416    1.640240788
    4 ASN   O         54    1.245348454    0.049360119    1.746819258
    5 CT3   N         55    1.112715483    0.043630857    1.567074299
    5 CT3   HN        56    1.102027535    0.076104574    1.477980256
    5 CT3   CH3       57    1.035795808   -0.071726322    1.601049423
    5 CT3   HH31      58    1.011740685   -0.055023432    1.709649086
    5 CT3   HH32      59    0.934571743   -0.082091808    1.553201318
    5 CT3   HH33      60    1.103028536   -0.164038181    1.587319136
    6 SOL   OW        61    0.793241262    0.969476402    0.994014323
    6 SOL   HW1       62    0.818717360    0.895088911    1.059506059
    6 SOL   HW2       63    0.754101038    1.038506508    1.056535721
    7 SOL   OW        64    0.349268675    2.968363523    2.089044094
    7 SOL   HW1       65    0.346861929    2.881645441    2.050596714
    7 SOL   HW2       66    0.415816665    2.951680660    2.155054808
    8 SOL   OW        67    0.709762037    2.541481972    1.889909983
    8 SOL   HW1       68    0.713401675    2.445043564    1.891633272
    8 SOL   HW2       69    0.785360217    2.572393179    1.942169547
    9 SOL   OW        70    2.243191719    1.129020214    0.119216576
    9 SOL   HW1       71    2.215686083    1.190144181    0.188649878
    9 SOL   HW2       72    2.340662718    1.126439571    0.127583981
   10 SOL   OW        73    1.754312873    0.388150215    0.377448916
   10 SOL   HW1       74    1.826403260    0.319024503    0.372812361
   10 SOL   HW2       75    1.745295882    0.387921840    0.471639782
   11 SOL   OW        76    2.126979113    2.799024582    0.011731549
   11 SOL   HW1       77    2.181469679    2.719449043    0.042412970
   11 SOL   HW2       78    2.045468569    2.787063122    0.062887706
   12 SOL   OW        79    2.815839529    2.056698799    0.605628669
   12 SOL   HW1       80    2.886517525    2.074267864    0.542289197
   12 SOL   HW2       81    2.833538532    1.968243122    0.637907267
   13 SOL   OW        82    0.988108695    0.498170316    0.663150787
   13 SOL   HW1       83    0.907020569    0.456988901    0.625014186
   13 SOL   HW2       84    0.979779899    0.580566049    0.613675594
   14 SOL   OW        85    2.786886215    1.802005649    2.981450081
   14 SOL   HW1       86    2.828409195    1.881867528    3.017892122
   14 SOL   HW2       87    2.690483332    1.805820584    2.997689486
   15 SOL   OW        88    0.546300650    2.624851942    0.879112303
   15 SOL   HW1       89    0.584467411    2.714679480    0.900244772
   15 SOL   HW2       90    0.451344639    2.640831470    0.859982371
   16 SOL   OW        91    2.332694769    1.949386239    2.536895752
   16 SOL   HW1       92    2.253183603    1.964016557    2.589973211
   16 SOL   HW2       93    2.412466764    1.973731637    2.590380669
   17 SOL   OW        94    2.083476543    0.977221310    2.964599848
   17 SOL   HW1       95    2.157856703    0.920600593    2.926512718
   17 SOL   HW2       96    2.124200583    1.021012545    3.035324335
   18 SOL   OW        97    1.554940581    2.694716930    2.215896130
   18 SOL   HW1       98    1.542155504    2.791384697    2.215247393
   18 SOL   HW2       99    1.531215191    2.668802977    2.306429386
   19 SOL   OW       100    2.584239006    2.693441868    2.913072824
   19 SOL   HW1      101    2.497249603    2.673969984    2.871959925
   19 SOL   HW2      102    2.629445314    2.720730543    2.837289333
   20 SOL   OW       103    2.400039911    1.757573605    1.028312087
   20 SOL   HW1      104    2.477396488    1.817818284    1.012155890
   20 SOL   HW2      105    2.328702927    1.821732998    1.027030230
   21 SOL   OW       106    1.676291585    2.256884098    0.915782750
   21 SOL   HW1      107    1.753853679    2.276636600    0.965825379
   21 SOL   HW2      108    1.701811552    2.257052183    0.824482679
   22 SOL   OW       109    2.975328207    1.256168842    2.577380180
   22 SOL   HW1      110    2.951192379    1.227576017    2.487717390
   22 SOL   HW2      111    2.887249708    1.277677894    2.611835957
   23 SOL   OW       112    0.293346167    1.175459623    1.380510330
   23 SOL   HW1      113    0.343938649    1.109814763    1.435198545
   23 SOL   HW2      114    0.252384275    1.113423347    1.315876365
   24 SOL   OW       115    2.489605188    1.490327835    0.489869058
   24 SOL   HW1      116    2.481361151    1.393624306    0.483511508
   24 SOL   HW2      117    2.468769789    1.500629306    0.583639681
   25 SOL   OW       118    0.171990246    2.425794840    0.216288030
   25 SOL   HW1      119    0.082938999    2.396881819    0.188495323
   25 SOL   HW2      120    0.153397426    2.521170855    0.241570607
   26 SOL   OW       121    1.562031746    1.667389274    2.185461283
   26 SOL   HW1      122    1.536813974    1.628893614    2.274589777
   26 SOL   HW2      123    1.636753678    1.728048205    2.210962772
   27 SOL   OW       124    2.631511211    2.221057415    2.182812691
   27 SOL   HW1      125    2.590989828    2.211418629    2.267739058
   27 SOL   HW2      126    2.606915951    2.140587091    2.139860392
   28 SOL   OW       127    2.180774212    1.463050604    2.077356100
   28 SOL   HW1      128    2.239841700    1.540204167    2.082628489
   28 SOL   HW2      129    2.101683855    1.495871425    2.115728140
   29 SOL   OW       130    2.082996607    0.003139052    2.403391838
   29 SOL   HW1      131    2.077977419   -0.093572855    2.423310518
   29 SOL   HW2      132    1.993468404    0.029807646    2.399322748
   30 SOL   OW       133    2.380869627    0.967162490    2.653130770
   30 SOL   HW1      134    2.336475849    0.905681551    2.715239286
   30 SOL   HW2      135    2.440357208    0.910320759    2.603724003
   31 SOL   OW       136    0.980842113    2.904846907    2.671197414
   31 SOL   HW1      137    1.018896341    2.988065481    2.633851051
   31 SOL   HW2      138    1.002484322    2.924336195    2.766627550
   32 SOL   OW       139    0.551439047    2.299514532    2.832903862
   32 SOL   HW1      140    0.494823188    2.320639372    2.907560349
   32 SOL   HW2      141    0.635120451    2.340011597    2.866171122
   33 SOL   OW       142    2.231474400    2.329610586    0.511921585
   33 SOL   HW1      143    2.206588030    2.373886108    0.600471079
   33 SOL   HW2      144    2.138842344    2.337516785    0.484491229
   34 SOL   OW       145    2.248824596    0.547274768    2.771100521
   34 SOL   HW1      146    2.164971828    0.548069000    2.828148603
   34 SOL   HW2      147    2.286020279    0.456244022    2.793419838
   35 SOL   OW       148    2.567407370    0.538639069    0.288742065
   35 SOL   HW1      149    2.616284370    0.605461359    0.334456921
   35 SOL   HW2      150    2.486639977    0.538716078    0.344629139
   36 SOL   OW       151    0.952139974    1.130040288    0.113920420
   36 SOL   HW1      152    0.956086338    1.217735410    0.070053793
   36 SOL   HW2      153    0.852767467    1.123509645    0.132835448
   37 SOL   OW       154    0.426244587    1.600727081    0.399769157
   37 SOL   HW1      155    0.483164221    1.529455662    0.424365908
   37 SOL   HW2      156    0.456843615    1.670613527    0.460218340
   38 SOL   OW       157    2.294283867    0.744522810    2.006121635
   38 SOL   HW1      158    2.200486183    0.714414239    2.040147543
   38 SOL   HW2      159    2.290906906    0.835569441    2.043489456
   39 SOL   OW       160    0.096241929    2.704691648    0.258997113
   39 SOL   HW1      161    0.083951823    2.720497370    0.163765192
   39 SOL   HW2      162    0.005663950    2.706562519    0.290258646
   40 SOL   OW       163    0.306293309    2.972464800    1.211142659
   40 SOL   HW1      164    0.349561960    2.960556030    1.293370247
   40 SOL   HW2      165    0.340448260    2.906083345    1.157992244
   41 SOL   OW       166    1.615920424    1.849822164    0.880747974
   41 SOL   HW1      167    1.624999523    1.855075479    0.778732359
   41 SOL   HW2      168    1.661823273    1.767222166    0.897149742
   42 SOL   OW       169    1.951087475    2.926864386    0.822690845
   42 SOL   HW1      170    1.923096299    3.019675970    0.792341590
   42 SOL   HW2      171    1.890355229    2.920097828    0.897789836
   43 SOL   OW       172    1.879612684    0.796554506    1.505379558
   43 SOL   HW1      173    1.881897449    0.846876562    1.423774004
   43 SOL   HW2      174    1.789114118    0.766749918    1.494450688
   44 SOL   OW       175    1.538241148    0.972575784    2.479729414
   44 SOL   HW1      176    1.617969990    1.025679588    2.475880861
   44 SOL   HW2      177    1.530778408    0.972638488    2.577630997
   45 SOL   OW       178    1.951104522    0.828809202    2.655504465
   45 SOL   HW1      179    1.868590593    0.781800270    2.675716162
   45 SOL   HW2      180    1.996243715    0.751955271    2.612502813
   46 SOL   OW       181    1.520547509    0.750620067    1.150357485
   46 SOL   HW1      182    1.475818634    0.755204082    1.061981678
   46 SOL   HW2      183    1.614872336    0.727788806    1.130038261
   47 SOL   OW       184    2.705664873    2.250356197    0.307695538
   47 SOL   HW1      185    2.661122322    2.339878798    0.299997658
   47 SOL   HW2      186    2.708546400    2.238881111    0.208556578
   48 SOL   OW       187    1.901043892    0.394192129    2.102362871
   48 SOL   HW1      188    1.908258915    0.434266835    2.013287067
   48 SOL   HW2      189    1.963687181    0.450848520    2.143996716
   49 SOL   OW       190    2.369169950    2.027965307    2.287721634
   49 SOL   HW1      191    2.318878651    1.977751136    2.220066309
   49 SOL   HW2      192    2.365548372    1.979618669    2.373106718
   50 SOL   OW       193    0.753054559    2.018660784    0.716793180
   50 SOL   HW1      194    0.786863923    1.989733338    0.803400338
   50 SOL   HW2      195    0.838036060    2.051730394    0.673825264
   51 SOL   OW       196    2.424201012    0.621735811    1.534603953
   51 SOL   HW1      197    2.426326036    0.676551938    1.614263654
   51 SOL   HW2      198    2.473863840    0.672159433    1.466658473
   52 SOL   OW       199    1.200821042    2.597582340    2.054938555
   52 SOL   HW1      200    1.203961492    2.661545277    1.977132320
   52 SOL   HW2      201    1.272176147    2.533195257    2.043287992
   53 SOL   OW       202    2.455043077    0.358336985    2.525489807
   53 SOL   HW1      203    2.386060953    0.379806608    2.463388681
   53 SOL   HW2      204    2.513605356    0.301827908    2.475850821
   54 SOL   OW       205    1.952437282    2.688485861    0.674528301
   54 SOL   HW1      206    2.022526264    2.617857218    0.693981469
   54 SOL   HW2      207    1.991993904    2.758322954    0.728698432
   55 SOL   OW       208    2.299250364    0.016776731    0.962859154
   55 SOL   HW1      209    2.390929937    0.021533923    0.984995306
   55 SOL   HW2      210    2.305891275    0.032780495    0.863061965
   56 SOL   OW       211    1.324580073    1.814227700    1.739696980
   56 SOL   HW1      212    1.396202207    1.785828352    1.672172666
   56 SOL   HW2      213    1.304499030    1.729247689    1.779298782
   57 SOL   OW       214    2.045732260    2.341946840    1.575939536
   57 SOL   HW1      215    2.030520678    2.249942064    1.616913676
   57 SOL   HW2      216    1.959855676    2.358367920    1.530763745
   58 SOL   OW       217    2.577822208    2.158245087    0.569376707
   58 SOL   HW1      218    2.595952272    2.181468487    0.466800034
   58 SOL   HW2      219    2.670333624    2.118012190    0.581996739
   59 SOL   OW       220    2.494415522    1.068745017    0.683149695
   59 SOL   HW1      221    2.581458330    1.026443601    0.656641424
   59 SOL   HW2      222    2.527789593    1.144777536    0.747190237
   60 SOL   OW       223    0.045319777    1.445897937    0.561826587
   60 SOL   HW1      224   -0.011725426    1.426402569    0.483480722
   60 SOL   HW2      225    0.104764827    1.374416828    0.556107044
   61 SOL   OW       226    0.144832149    0.401956171    1.830104470
   61 SOL   HW1      227    0.047311634    0.418000221    1.811260462
   61 SOL   HW2      228    0.164666951    0.477131635    1.896533251
   62 SOL   OW       229    0.384002000    0.659962296    0.997305691
   62 SOL   HW1      230    0.415404975    0.570253670    0.969934762
   62 SOL   HW2      231    0.449632019    0.721569240    0.962350667
   63 SOL   OW       232    1.494544744    2.082320213    1.278941512
   63 SOL   HW1      233    1.484876752    1.994519353    1.324719548
   63 SOL   HW2      234    1.480655193    2.057589769    1.183254957
   64 SOL   OW       235    0.671871006    1.105617046    2.468661308
   64 SOL   HW1      236    0.704554677    1.048984647    2.543650627
   64 SOL   HW2      237    0.645509660    1.179439425    2.518673182
   65 SOL   OW       238    2.512702703    2.068422318    1.719390750
   65 SOL   HW1      239    2.524395943    2.160310030    1.700329781
   65 SOL   HW2      240    2.427397490    2.052092314    1.684434056
   66 SOL   OW       241    1.803745270    0.400903463    2.911062956
   66 SOL   HW1      242    1.823725462    0.310204208    2.953712463
   66 SOL   HW2      243    1.844875455    0.455810249    2.977258205
   67 SOL   OW       244    1.554415226    1.018104434    0.308220774
   67 SOL   HW1      245    1.562947989    1.039310932    0.212762997
   67 SOL   HW2      246    1.499861002    1.094647288    0.341813743
   68 SOL   OW       247    2.978023291    0.212261796    1.375893235
   68 SOL   HW1      248    3.003675938    0.120135553    1.358866334
   68 SOL   HW2      249    2.918760777    0.202289924    1.450462103
   69 SOL   OW       250    1.204832673    0.196748182    0.126799449
   69 SOL   HW1      251    1.247098565    0.270604134    0.074708134
   69 SOL   HW2      252    1.247050405    0.220689908    0.212411806
   70 SOL   OW       253    1.464158773    1.168820739    2.921531916
   70 SOL   HW1      254    1.401639462    1.171938300    2.986973286
   70 SOL   HW2      255    1.453991294    1.262958765    2.888366222
   71 SOL   OW       256    2.971550941    1.331853628    2.935345173
   71 SOL   HW1      257    3.012220144    1.245759726    2.965213537
   71 SOL   HW2      258    3.053194761    1.379457235    2.918188810
   72 SOL   OW       259    1.454512239    2.448215723    1.969868183
   72 SOL   HW1      260    1.389691591    2.403464317    1.915605307
   72 SOL   HW2      261    1.503551245    2.501191139    1.911994100
   73 SOL   OW       262    1.907696724    1.019025922    2.039294720
   73 SOL   HW1      263    1.943962216    0.981263876    1.953831673
   73 SOL   HW2      264    1.910966039    0.943146408    2.101513863
   74 SOL   OW       265    2.942190886    1.634487748    0.110272735
   74 SOL   HW1      266    3.015160799    1.618287206    0.038743399
   74 SOL   HW2      267    2.883018494    1.699835300    0.064441137
   75 SOL   OW       268    0.197612450    0.095188215    2.886823893
   75 SOL   HW1      269    0.139351860    0.079719961    2.808720112
   75 SOL   HW2      270    0.290908933    0.094288722    2.853902817
   76 SOL   OW       271    2.289218903    0.902686119    0.795065045
   76 SOL   HW1      272    2.289199352    0.867926180    0.885508835
   76 SOL   HW2      273    2.367511749    0.955732167    0.790822148
   77 SOL   OW       274    0.260576606    2.354399681    1.741890073
   77 SOL   HW1      275    0.342325598    2.342174768    1.788542509
   77 SOL   HW2      276    0.201820761    2.356714964    1.817049265
   78 SOL   OW       277    0.669279754    1.221310496    1.899269223
   78 SOL   HW1      278    0.601860702    1.281862378    1.875088096
   78 SOL   HW2      279    0.613362968    1.141868591    1.885033011
   79 SOL   OW       280    2.995712280    0.664924383    0.621644139
   79 SOL   HW1      281    3.083180189    0.626080036    0.653758824
   79 SOL   HW2      282    2.934175014    0.612647712    0.676341712
   80 SOL   OW       283    0.895391047    0.719514668    2.797171354
   80 SOL   HW1      284    0.973707199    0.769629538    2.765789032
   80 SOL   HW2      285    0.874344289    0.763801575    2.876393795
   81 SOL   OW       286    1.054850459    1.249471664    2.568017721
   81 SOL   HW1      287    1.146717310    1.217853189    2.573173523
   81 SOL   HW2      288    1.031477332    1.235013604    2.667188644
   82 SOL   OW       289    1.611368179    2.311237812    0.322622269
   82 SOL   HW1      290    1.534955978    2.331547499    0.385614485
   82 SOL   HW2      291    1.563540697    2.295124292    0.239680797
   83 SOL   OW       292    0.320675731    2.450522184    0.447918892
   83 SOL   HW1      293    0.262089550    2.455814123    0.526926696
   83 SOL   HW2      294    0.265501440    2.421106100    0.378084898
   84 SOL   OW       295    1.324200630    2.572189331    0.896660089
   84 SOL   HW1      296    1.294990182    2.666725636    0.897219598
   84 SOL   HW2      297    1.383122444    2.572744846    0.814042568
   85 SOL   OW       298    1.259258866    2.748085022    1.826118708
   85 SOL   HW1      299    1.349771023    2.725031853    1.827223063
   85 SOL   HW2      300    1.254602909    2.763728857    1.725452781
   86 SOL   OW       301    1.310626626    1.193661332    2.610577822
   86 SOL   HW1      302    1.367549539    1.262848854    2.649374723
   86 SOL   HW2      303    1.373434424    1.128668308    2.578560114
   87 SOL   OW       304    0.861114264    1.555429697    1.426265955
   87 SOL   HW1      305    0.845108867    1.565966129    1.329207182
   87 SOL   HW2      306    0.934056461    1.613986492    1.436268210
   88 SOL   OW       307    2.047258615    0.447436422    1.347450018
   88 SOL   HW1      308    2.055098772    0.356897771    1.310598850
   88 SOL   HW2      309    2.016692162    0.505914688    1.271637321
   89 SOL   OW       310    0.743104815    2.468104839    0.873220623
   89 SOL   HW1      311    0.655336797    2.522640944    0.882907927
   89 SOL   HW2      312    0.695538104    2.386715174    0.845098674
   90 SOL   OW       313    2.343437672    2.108948469    0.319067121
   90 SOL   HW1      314    2.331351995    2.091389894    0.414437711
   90 SOL   HW2      315    2.421264410    2.051540613    0.295321465
   91 SOL   OW       316    1.774476528    0.117099851    2.750406742
   91 SOL   HW1      317    1.779569864    0.072762109    2.664975643
   91 SOL   HW2      318    1.864355445    0.150131032    2.762242317
   92 SOL   OW       319    0.389099598    0.333568275    1.739273787
   92 SOL   HW1      320    0.387115657    0.319381595    1.648248315
   92 SOL   HW2      321    0.298513144    0.378321379    1.751872659
   93 SOL   OW       322    0.359920263    0.470954359    0.073752761
   93 SOL   HW1      323    0.433010966    0.408771515    0.046146955
   93 SOL   HW2      324    0.276587516    0.428082377    0.060436185
   94 SOL   OW       325    1.433332920    0.747319281    0.606565416
   94 SOL   HW1      326    1.514407516    0.783167839    0.558156550
   94 SOL   HW2      327    1.361265302    0.803482771    0.563550174
   95 SOL   OW       328    0.878109038    2.001752377    0.971870720
   95 SOL   HW1      329    0.814934373    2.023251295    1.044159055
   95 SOL   HW2      330    0.946083784    2.075369835    0.970373392
   96 SOL   OW       331    0.076240934    2.358422518    1.964706182
   96 SOL   HW1      332   -0.021042824    2.340808392    1.960602999
   96 SOL   HW2      333    0.087227724    2.450984955    1.954253793
   97 SOL   OW       334    2.147755384    0.941529036    1.619322181
   97 SOL   HW1      335    2.136151075    0.987863660    1.701823235
   97 SOL   HW2      336    2.052390575    0.922017813    1.598415613
   98 SOL   OW       337    1.845564485    2.007395506    0.982916653
   98 SOL   HW1      338    1.753784180    2.030471563    0.986753166
   98 SOL   HW2      339    1.835361719    1.911731124    0.991470575
   99 SOL   OW       340    1.487169623    2.071786642    0.985657573
   99 SOL   HW1      341    1.532092571    1.995774388    0.944231153
   99 SOL   HW2      342    1.537496805    2.149099112    0.952988446
  100 SOL   OW       343    0.148700297    1.120144606    0.003412868
  100 SOL   HW1      344    0.188650608    1.104597569   -0.081075668
  100 SOL   HW2      345    0.155015573    1.030258417    0.041618928
  101 SOL   OW       346    0.771699548    1.856612682    1.548335552
  101 SOL   HW1      347    0.793899357    1.941740990    1.513044834
  101 SOL   HW2      348    0.858076274    1.814524412    1.559595823
  102 SOL   OW       349    2.171346188    2.895143986    0.698049009
  102 SOL   HW1      350    2.097816467    2.917309761    0.754554093
  102 SOL   HW2      351    2.217665911    2.977312565    0.697296798
  103 SOL   OW       352    1.129699707    1.268791080    2.007991076
  103 SOL   HW1      353    1.033921361    1.248346806    2.025762081
  103 SOL   HW2      354    1.119125128    1.297178626    1.916456938
  104 SOL   OW       355    2.075447321    0.120243423    1.034911633
  104 SOL   HW1      356    2.153695822    0.090045325    0.987907171
  104 SOL   HW2      357    2.004344940    0.056407928    1.012041450
  105 SOL   OW       358    2.460994720    2.514598608    2.537711859
  105 SOL   HW1      359    2.490711927    2.533622980    2.628222227
  105 SOL   HW2      360    2.371933222    2.549480677    2.541584492
  106 SOL   OW       361    0.510585725    2.333127975    2.314224243
  106 SOL   HW1      362    0.508388817    2.370616198    2.409116268
  106 SOL   HW2      363    0.437228590    2.266356230    2.313456297
  107 SOL   OW       364    2.670966864    2.561150789    1.916559935
  107 SOL   HW1      365    2.572916746    2.559771776    1.896454096
  107 SOL   HW2      366    2.713008404    2.607092619    1.846283197
  108 SOL   OW       367    2.621067047    0.818832397    2.824028969
  108 SOL   HW1      368    2.661107540    0.775452912    2.902508020
  108 SOL   HW2      369    2.596653700    0.906150460    2.857597351
  109 SOL   OW       370    0.536762834    1.878650784    1.073592663
  109 SOL   HW1      371    0.492120504    1.961306095    1.048718452
  109 SOL   HW2      372    0.561880112    1.890483618    1.168317318
  110 SOL   OW       373    0.335605234    1.659097314    2.469174623
  110 SOL   HW1      374    0.329787880    1.568605900    2.432949066
  110 SOL   HW2      375    0.246416062    1.664476514    2.497307777
  111 SOL   OW       376    0.361129671    2.779807329    0.288952678
  111 SOL   HW1      377    0.271929145    2.742250443    0.297125280
  111 SOL   HW2      378    0.327293724    2.858458519    0.248654976
  112 SOL   OW       379    2.056794405    1.669435382    2.230032682
  112 SOL   HW1      380    1.972597837    1.638526559    2.268350124
  112 SOL   HW2      381    2.112915754    1.682662964    2.307466507
  113 SOL   OW       382    2.876559258    0.602155447    2.310397387
  113 SOL   HW1      383    2.889005184    0.509055018    2.323144197
  113 SOL   HW2      384    2.872597456    0.627816916    2.402896404
  114 SOL   OW       385    1.464055538    0.076697998    1.932459831
  114 SOL   HW1      386    1.494208813   -0.019414186    1.946588516
  114 SOL   HW2      387    1.386849761    0.063227162    1.872907758
  115 SOL   OW       388    1.759714127    0.447161615    1.177753448
  115 SOL   HW1      389    1.760313749    0.447368175    1.279976010
  115 SOL   HW2      390    1.743085027    0.548103511    1.168855190
  116 SOL   OW       391    2.761420965    0.017890589    2.235175848
  116 SOL   HW1      392    2.668757439    0.010129965    2.199324131
  116 SOL   HW2      393    2.807646990   -0.042932749    2.174879313
  117 SOL   OW       394    2.029468775    2.652821779    0.394923687
  117 SOL   HW1      395    1.945678234    2.607562542    0.422537237
  117 SOL   HW2      396    2.055686712    2.678656340    0.479245663
  118 SOL   OW       397    1.096850038    2.872159243    1.174720168
  118 SOL   HW1      398    1.053819418    2.802251577    1.235110402
  118 SOL   HW2      399    1.168084621    2.916578054    1.238058209
  119 SOL   OW       400    1.854093671    1.900855541    2.210374355
  119 SOL   HW1      401    1.833278537    1.928220630    2.294718266
  119 SOL   HW2      402    1.905657053    1.820645809    2.230651855
  120 SOL   OW       403    2.651437521    0.787660182    1.613448262
  120 SOL   HW1      404    2.605053186    0.865506649    1.638916969
  120 SOL   HW2      405    2.697087526    0.780703187    1.700397134
  121 SOL   OW       406    1.265191317    2.043326616    1.887075186
  121 SOL   HW1      407    1.297361135    1.967697263    1.829686046
  121 SOL   HW2      408    1.308205843    2.025872469    1.971806526
  122 SOL   OW       409    1.219170094    1.491895437    2.205461740
  122 SOL   HW1      410    1.164080977    1.414415121    2.177293777
  122 SOL   HW2      411    1.285455108    1.467463732    2.141926289
  123 SOL   OW       412    1.062494993    0.015345819    2.884796381
  123 SOL   HW1      413    1.010489464    0.098506555    2.870197058
  123 SOL   HW2      414    1.045393825   -0.000207424    2.980573177
  124 SOL   OW       415    2.243766785    0.470791876    1.752065301
  124 SOL   HW1      416    2.285616398    0.523949564    1.686978698
  124 SOL   HW2      417    2.153545856    0.490988791    1.728015184
  125 SOL   OW       418    1.053549767    2.193262100    0.985379100
  125 SOL   HW1      419    1.097844601    2.241751671    0.910712719
  125 SOL   HW2      420    1.066549063    2.264316320    1.050509572
  126 SOL   OW       421    1.853273511    1.324377537    1.588043690
  126 SOL   HW1      422    1.929437399    1.363793731    1.535697103
  126 SOL   HW2      423    1.892205000    1.337801099    1.679815531
  127 SOL   OW       424    1.472036004    1.544433355    1.296488047
  127 SOL   HW1      425    1.549616575    1.594718456    1.262439489
  127 SOL   HW2      426    1.494998097    1.458254933    1.265484095
  128 SOL   OW       427    2.472618580    2.364622831    1.623452902
  128 SOL   HW1      428    2.568784237    2.354273319    1.636458039
  128 SOL   HW2      429    2.474997520    2.453523397    1.594233990
  129 SOL   OW       430    0.745858550    0.528901041    1.806695342
  129 SOL   HW1      431    0.670143962    0.517352164    1.872828722
  129 SOL   HW2      432    0.735712528    0.455229610    1.741437316
  130 SOL   OW       433    0.665418148    2.395320892    0.221774161
  130 SOL   HW1      434    0.721301079    2.475845575    0.231757909
  130 SOL   HW2      435    0.731323421    2.330140114    0.195015833
  131 SOL   OW       436    1.827230334    2.217286587    0.624741197
  131 SOL   HW1      437    1.896437764    2.190225363    0.687182486
  131 SOL   HW2      438    1.784561396    2.133718252    0.590590119
  132 SOL   OW       439    0.884149790    0.314201534    2.137444973
  132 SOL   HW1      440    0.845945477    0.269110918    2.212196827
  132 SOL   HW2      441    0.977431178    0.283389866    2.149047613
  133 SOL   OW       442    1.155426383    0.707457304    1.070310593
  133 SOL   HW1      443    1.118557215    0.647099018    1.000035763
  133 SOL   HW2      444    1.215553403    0.649794817    1.113851547
  134 SOL   OW       445    0.825239778    2.330307007    1.296769857
  134 SOL   HW1      446    0.741641343    2.329174280    1.251471043
  134 SOL   HW2      447    0.879935861    2.389176846    1.241405010
  135 SOL   OW       448    2.291979313    2.341403008    2.726030827
  135 SOL   HW1      449    2.236900806    2.275701284    2.777603626
  135 SOL   HW2      450    2.234235525    2.357953310    2.650074720
  136 SOL   OW       451    1.659183145    0.828594387    0.443913072
  136 SOL   HW1      452    1.658761621    0.757290244    0.379048079
  136 SOL   HW2      453    1.619288564    0.905089259    0.390019119
  137 SOL   OW       454    1.301952124    2.868651867    0.914093018
  137 SOL   HW1      455    1.300188541    2.891275167    1.008383155
  137 SOL   HW2      456    1.225804210    2.916194439    0.893548191
  138 SOL   OW       457    0.026747091    0.091297254    2.337590218
  138 SOL   HW1      458   -0.071466208    0.079110764    2.332581043
  138 SOL   HW2      459    0.057700422    0.005478687    2.364022255
  139 SOL   OW       460    2.224905491    1.584875822    0.258072108
  139 SOL   HW1      461    2.233973742    1.639250517    0.183945775
  139 SOL   HW2      462    2.171498060    1.643777966    0.318700075
  140 SOL   OW       463    1.853504658    1.614385366    1.904607058
  140 SOL   HW1      464    1.817262053    1.702798128    1.921836495
  140 SOL   HW2      465    1.767126322    1.572166800    1.904190063
  141 SOL   OW       466    2.662477493    0.310731947    0.177770451
  141 SOL   HW1      467    2.622533321    0.392108232    0.210562795
  141 SOL   HW2      468    2.742520809    0.307375073    0.235750660
  142 SOL   OW       469    2.198643446    2.560399055    2.122048616
  142 SOL   HW1      470    2.114460468    2.547732115    2.076731682
  142 SOL   HW2      471    2.203342676    2.466820002    2.158466816
  143 SOL   OW       472    2.466390371    2.984916687    0.387785345
  143 SOL   HW1      473    2.387161970    2.939555168    0.416252106
  143 SOL   HW2      474    2.415680885    3.062039852    0.353416085
  144 SOL   OW       475    1.883059859    1.196265578    0.838482082
  144 SOL   HW1      476    1.965327024    1.225503683    0.885978043
  144 SOL   HW2      477    1.851576209    1.277212024    0.789413989
  145 SOL   OW       478    0.603579700    1.939166546    1.337280035
  145 SOL   HW1      479    0.649047673    1.897655606    1.418585300
  145 SOL   HW2      480    0.670843840    1.993680358    1.294049382
  146 SOL   OW       481    2.725152493    2.245618820    0.044283092
  146 SOL   HW1      482    2.641757011    2.255966663   -0.007240295
  146 SOL   HW2      483    2.788243294    2.230753183   -0.022115946
  147 SOL   OW       484    2.255096436    1.700537086    2.428040981
  147 SOL   HW1      485    2.281925917    1.781132817    2.481627703
  147 SOL   HW2      486    2.325225115    1.706523061    2.358551502
  148 SOL   OW       487    1.802277923    2.413838625    0.160374999
  148 SOL   HW1      488    1.748517513    2.352280378    0.210955486
  148 SOL   HW2      489    1.788123131    2.377858877    0.066425614
  149 SOL   OW       490    2.946211100    1.186729312    1.891393542
  149 SOL   HW1      491    2.974779129    1.252676249    1.953981757
  149 SOL   HW2      492    2.888111830    1.247295499    1.846356869
  150 SOL   OW       493    2.731011391    2.118286371    2.716692686
  150 SOL   HW1      494    2.735103846    2.084174633    2.632261992
  150 SOL   HW2      495    2.648451567    2.081374407    2.750018358
  151 SOL   OW       496    2.153329134    1.334247828    0.292567581
  151 SOL   HW1      497    2.206156492    1.406664133    0.277641356
  151 SOL   HW2      498    2.108220100    1.348119617    0.381139189
  152 SOL   OW       499    1.757396460    1.106850624    1.068636179
  152 SOL   HW1      500    1.804390669    1.126639605    0.988492310
  152 SOL   HW2      501    1.668545604    1.098566651    1.038255334
  153 SOL   OW       502    0.288213968    2.277049541    1.105214953
  153 SOL   HW1      503    0.213317245    2.313581944    1.053603649
  153 SOL   HW2      504    0.239945248    2.198620081    1.138361692
  154 SOL   OW       505    2.547244310    1.479733109    2.679013491
  154 SOL   HW1      506    2.624886036    1.493333578    2.742612839
  154 SOL   HW2      507    2.481777668    1.539883018    2.727531910
  155 SOL   OW       508    1.824865580    0.775593877    2.207991123
  155 SOL   HW1      509    1.800162196    0.730785012    2.293825626
  155 SOL   HW2      510    1.885609627    0.841808021    2.243996143
  156 SOL   OW       511    2.191473007    2.201364040    1.237994671
  156 SOL   HW1      512    2.203271151    2.287556887    1.283537149
  156 SOL   HW2      513    2.224540949    2.136799097    1.307672024
  157 SOL   OW       514    1.290568590    1.008301258    0.760709405
  157 SOL   HW1      515    1.282260180    0.982376516    0.663860261
  157 SOL   HW2      516    1.319830656    1.100735903    0.745711744
  158 SOL   OW       517    0.695292532    1.090351939    0.111257493
  158 SOL   HW1      518    0.613879263    1.040807128    0.135506719
  158 SOL   HW2      519    0.688568771    1.096356869    0.008438858
  159 SOL   OW       520    0.973389804    1.055231929    1.294834733
  159 SOL   HW1      521    0.903389931    1.053055882    1.367718339
  159 SOL   HW2      522    0.968377471    0.971054196    1.248223543
  160 SOL   OW       523    1.055400491    2.867066145    1.953937054
  160 SOL   HW1      524    1.116319895    2.802611113    1.908417463
  160 SOL   HW2      525    1.090148687    2.942656994    1.905023575
  161 SOL   OW       526    0.006092780    0.592316568    2.953809500
  161 SOL   HW1      527    0.047728799    0.501530886    2.959647179
  161 SOL   HW2      528   -0.050876617    0.580133259    2.876141787
  162 SOL   OW       529    2.016820908    0.628654480    2.892730951
  162 SOL   HW1      530    1.954647183    0.692109823    2.845803976
  162 SOL   HW2      531    2.031901836    0.678633928    2.971565723
  163 SOL   OW       532    1.586100578    0.390185535    2.676637173
  163 SOL   HW1      533    1.616783381    0.325619251    2.735785961
  163 SOL   HW2      534    1.506462574    0.411439300    2.726572037
  164 SOL   OW       535    2.410260201    1.795140624    1.616561770
  164 SOL   HW1      536    2.502164841    1.769755840    1.619734406
  164 SOL   HW2      537    2.420362473    1.874402761    1.562721133
  165 SOL   OW       538    0.753753543    2.236174583    2.236000776
  165 SOL   HW1      539    0.667424738    2.259067297    2.278162003
  165 SOL   HW2      540    0.820178866    2.309249878    2.268453836
  166 SOL   OW       541    0.521766722    0.254749298    0.548216283
  166 SOL   HW1      542    0.511898756    0.294966102    0.461105734
  166 SOL   HW2      543    0.470426172    0.174378023    0.537323236
  167 SOL   OW       544    0.208461955    1.961771607    2.915364265
  167 SOL   HW1      545    0.238854095    1.968626380    2.825658083
  167 SOL   HW2      546    0.109636039    1.976485252    2.912651300
  168 SOL   OW       547    2.842602968    1.666198730    2.724082232
  168 SOL   HW1      548    2.807876110    1.583305597    2.748802662
  168 SOL   HW2      549    2.827706575    1.717869043    2.807350397
  169 SOL   OW       550    2.674453020    0.267928332    2.919230223
  169 SOL   HW1      551    2.581661701    0.258556128    2.886874914
  169 SOL   HW2      552    2.663065195    0.300342739    3.007354975
  170 SOL   OW       553    1.530369759    1.108543992    0.929284573
  170 SOL   HW1      554    1.471924901    1.158032417    0.867965877
  170 SOL   HW2      555    1.543034434    1.020295858    0.883959711
  171 SOL   OW       556    0.591999531    2.894360065    2.401355267
  171 SOL   HW1      557    0.498377830    2.871325970    2.443278790
  171 SOL   HW2      558    0.599922478    2.832766056    2.325960398
  172 SOL   OW       559    1.541051984    1.319133162    1.148419142
  172 SOL   HW1      560    1.539497018    1.374784827    1.069253564
  172 SOL   HW2      561    1.501881480    1.231631041    1.114573836
  173 SOL   OW       562    1.763740540    0.003552675    1.852094173
  173 SOL   HW1      563    1.828616977   -0.068328619    1.879765749
  173 SOL   HW2      564    1.688960671   -0.034976244    1.893664837
  174 SOL   OW       565    2.413336039    0.013313551    0.064270474
  174 SOL   HW1      566    2.344018698    0.038424831    0.002896080
  174 SOL   HW2      567    2.430535555    0.088727772    0.119488031
  175 SOL   OW       568    1.735271215    2.548555851    0.411511242
  175 SOL   HW1      569    1.653696656    2.496118307    0.427537322
  175 SOL   HW2      570    1.738514781    2.533451796    0.317617416
  176 SOL   OW       571    2.293336153    0.823373795    2.858788252
  176 SOL   HW1      572    2.247663260    0.737599492    2.849281549
  176 SOL   HW2      573    2.337406874    0.808085859    2.942476034
  177 SOL   OW       574    1.840579391    2.632901669    1.559912324
  177 SOL   HW1      575    1.758116364    2.638735533    1.613903880
  177 SOL   HW2      576    1.807060361    2.572686672    1.491409898
  178 SOL   OW       577    0.370079756    1.569078326    1.196327209
  178 SOL   HW1      578    0.463775873    1.562677860    1.160784125
  178 SOL   HW2      579    0.330302298    1.547137141    1.112612367
  179 SOL   OW       580    0.741862476    1.796980977    0.386111230
  179 SOL   HW1      581    0.661606967    1.799197078    0.448114812
  179 SOL   HW2      582    0.728330255    1.880258679    0.337004930
  180 SOL   OW       583    0.767713487    1.363985300    2.393514872
  180 SOL   HW1      584    0.702133119    1.303300858    2.360931635
  180 SOL   HW2      585    0.719464183    1.442381024    2.375357628
  181 SOL   OW       586    0.382940501    0.476869017    2.575969934
  181 SOL   HW1      587    0.423333287    0.424391359    2.505092144
  181 SOL   HW2      588    0.446814418    0.459342152    2.651686430
  182 SOL   OW       589    1.319016814    0.412110776    0.924694240
  182 SOL   HW1      590    1.371056318    0.325758457    0.929144025
  182 SOL   HW2      591    1.342207432    0.450512618    0.838843882
  183 SOL   OW       592    2.466270447    1.988089085    1.429864764
  183 SOL   HW1      593    2.387632370    2.045691490    1.438772202
  183 SOL   HW2      594    2.508252621    2.036194801    1.353594303
  184 SOL   OW       595    2.569258928    1.861891389    1.892456770
  184 SOL   HW1      596    2.632542372    1.806208014    1.845928311
  184 SOL   HW2      597    2.554136753    1.941939950    1.837133527
  185 SOL   OW       598    1.675466895    0.347694576    0.677676141
  185 SOL   HW1      599    1.582309723    0.389889061    0.696992517
  185 SOL   HW2      600    1.645578384    0.256833613    0.689538598
  186 SOL   OW       601    0.376268923    2.064200163    1.425288558
  186 SOL   HW1      602    0.472992063    2.047055006    1.422589302
  186 SOL   HW2      603    0.336198717    1.987018943    1.391068339
  187 SOL   OW       604    1.235801935    0.754159570    0.238634124
  187 SOL   HW1      605    1.218945861    0.757841229    0.143984705
  187 SOL   HW2      606    1.259294152    0.847727656    0.255569488
  188 SOL   OW       607    0.624509692    0.742338002    1.403785110
  188 SOL   HW1      608    0.646183610    0.678117037    1.474213004
  188 SOL   HW2      609    0.549200952    0.773491740    1.454234600
  189 SOL   OW       610    0.757733762    0.957774818    0.482032567
  189 SOL   HW1      611    0.792921603    1.004619956    0.559016109
  189 SOL   HW2      612    0.787389457    0.867310941    0.494322836
  190 SOL   OW       613    0.084441826    1.542205811    2.402031422
  190 SOL   HW1      614    0.118692569    1.459123731    2.428121567
  190 SOL   HW2      615   -0.010852337    1.525387287    2.382756233
  191 SOL   OW       616    1.472184300    0.803367376    0.888629019
  191 SOL   HW1      617    1.473125339    0.744320273    0.812169671
  191 SOL   HW2      618    1.402495861    0.861882508    0.866568327
  192 SOL   OW       619    0.686718285    2.164119959    1.087108612
  192 SOL   HW1      620    0.621736169    2.146638870    1.017569304
  192 SOL   HW2      621    0.636274576    2.210327864    1.157376289
  193 SOL   OW       622    2.507349968    0.996708632    2.369213104
  193 SOL   HW1      623    2.498393297    1.034404874    2.453824043
  193 SOL   HW2      624    2.521234512    0.901014566    2.385630846
  194 SOL   OW       625    2.224236965    2.875949383    1.440208673
  194 SOL   HW1      626    2.247493029    2.899802923    1.345035434
  194 SOL   HW2      627    2.126944065    2.887833595    1.437122107
  195 SOL   OW       628    2.030737638    0.633336961    2.035348892
  195 SOL   HW1      629    1.976706982    0.608272374    1.957692742
  195 SOL   HW2      630    1.965818763    0.673893750    2.095922947
  196 SOL   OW       631    0.127597809    0.374174833    0.950506508
  196 SOL   HW1      632    0.074840344    0.375893712    1.033062935
  196 SOL   HW2      633    0.215253696    0.394574016    0.989670217
  197 SOL   OW       634    2.998463869    0.818328023    2.030958414
  197 SOL   HW1      635    3.011204481    0.853091657    2.122509718
  197 SOL   HW2      636    2.917815685    0.868010402    2.000928879
  198 SOL   OW       637    0.327729791    1.582025409    1.593523383
  198 SOL   HW1      638    0.403946877    1.604055166    1.544718146
  198 SOL   HW2      639    0.279766679    1.538698316    1.525809884
  199 SOL   OW       640    2.185405493    1.984991074    2.776612759
  199 SOL   HW1      641    2.173220634    2.076189518    2.816067219
  199 SOL   HW2      642    2.272394657    1.973168850    2.820168972
  200 SOL   OW       643    1.712753177    1.209984660    1.349551916
  200 SOL   HW1      644    1.729282856    1.283249378    1.413353562
  200 SOL   HW2      645    1.666688681    1.254952669    1.276696801
  201 SOL   OW       646    0.235681891    1.191864371    2.083399057
  201 SOL   HW1      647    0.205364704    1.124431491    2.149703979
  201 SOL   HW2      648    0.281139493    1.126911759    2.027198315
  202 SOL   OW       649    0.502546251    0.924607456    0.436687380
  202 SOL   HW1      650    0.596442401    0.951609850    0.437266946
  202 SOL   HW2      651    0.513186395    0.826432347    0.432487428
  203 SOL   OW       652    1.324467182    0.300236970    2.518328428
  203 SOL   HW1      653    1.402173400    0.348309487    2.497044086
  203 SOL   HW2      654    1.351917505    0.211056679    2.502169371
  204 SOL   OW       655    0.044206757    0.100380994    0.342185467
  204 SOL   HW1      656    0.107730150    0.048261784    0.279446155
  204 SOL   HW2      657   -0.028135300    0.041461930    0.337442636
  205 SOL   OW       658    2.660678864    1.705689430    1.650893688
  205 SOL   HW1      659    2.663796186    1.653240561    1.570047021
  205 SOL   HW2      660    2.695174217    1.645788550    1.716582656
  206 SOL   OW       661    1.219080091    1.408676982    0.654674768
  206 SOL   HW1      662    1.235150099    1.484136462    0.712394953
  206 SOL   HW2      663    1.218522310    1.449892879    0.562075436
  207 SOL   OW       664    0.703833759    2.891113758    2.660393476
  207 SOL   HW1      665    0.715875745    2.908766985    2.565699577
  207 SOL   HW2      666    0.794465780    2.858994961    2.684938908
  208 SOL   OW       667    1.593095183    1.829695344    1.405871153
  208 SOL   HW1      668    1.600691676    1.773677588    1.329311728
  208 SOL   HW2      669    1.560334921    1.770802736    1.476998210
  209 SOL   OW       670    2.366319180    2.605664492    2.784277916
  209 SOL   HW1      671    2.291927099    2.660906553    2.752509594
  209 SOL   HW2      672    2.334665537    2.514753580    2.750375986
  210 SOL   OW       673    0.762328088    2.114244461    2.711466551
  210 SOL   HW1      674    0.724077046    2.061588049    2.635414362
  210 SOL   HW2      675    0.682697594    2.164067268    2.738278389
  211 SOL   OW       676    2.951497316    0.362300217    1.151535630
  211 SOL   HW1      677    2.985450745    0.333258778    1.241598010
  211 SOL   HW2      678    2.874729156    0.306083858    1.147656441
  212 SOL   OW       679    0.535328686    0.365923643    2.402776480
  212 SOL   HW1      680    0.546818435    0.324239075    2.315598249
  212 SOL   HW2      681    0.619126856    0.330727249    2.441013336
  213 SOL   OW       682    1.710557342    2.349872112    2.905439854
  213 SOL   HW1      683    1.616254330    2.339243174    2.932077646
  213 SOL   HW2      684    1.695361495    2.398335934    2.817498446
  214 SOL   OW       685    2.908088923    0.091314495    1.717481136
  214 SOL   HW1      686    2.833069563    0.037792679    1.751123548
  214 SOL   HW2      687    2.879904985    0.187460288    1.726503015
  215 SOL   OW       688    0.118289270    0.531679928    2.609291553
  215 SOL   HW1      689    0.093099222    0.498315781    2.522284508
  215 SOL   HW2      690    0.211789399    0.506338000    2.611463547
  216 SOL   OW       691    2.343738317    2.633629322    1.518316627
  216 SOL   HW1      692    2.342684507    2.654829025    1.611659765
  216 SOL   HW2      693    2.294140339    2.709314108    1.483235836
  217 SOL   OW       694    0.235382780    1.937086582    2.644624472
  217 SOL   HW1      695    0.167792037    1.866037965    2.642275810
  217 SOL   HW2      696    0.204924420    1.985506296    2.567540884
  218 SOL   OW       697    0.405856282    1.845097780    2.277541637
  218 SOL   HW1      698    0.393714905    1.775957704    2.352626562
  218 SOL   HW2      699    0.388196200    1.784963012    2.203510761
  219 SOL   OW       700    2.022179604    1.356873155    0.520188689
  219 SOL   HW1      701    2.083080053    1.300235987    0.566413999
  219 SOL   HW2      702    1.939831018    1.310000777    0.521250069
  220 SOL   OW       703    0.533308148    0.049518380    1.373577237
  220 SOL   HW1      704    0.597812891    0.015036798    1.445365787
  220 SOL   HW2      705    0.594979107    0.090327866    1.308074117
  221 SOL   OW       706    1.622526288    1.641126394    2.845351219
  221 SOL   HW1      707    1.623849869    1.666386724    2.943146706
  221 SOL   HW2      708    1.697881937    1.586133480    2.840271950
  222 SOL   OW       709    2.345479250    0.450014442    1.347592115
  222 SOL   HW1      710    2.367850542    0.518712640    1.420095205
  222 SOL   HW2      711    2.251726627    0.471492976    1.341173887
  223 SOL   OW       712    2.852471352    1.156509876    0.286421418
  223 SOL   HW1      713    2.793930292    1.182940722    0.356335253
  223 SOL   HW2      714    2.916385651    1.224447966    0.276282728
  224 SOL   OW       715    1.634914756    1.528086066    0.506439924
  224 SOL   HW1      716    1.700405002    1.589573741    0.474072278
  224 SOL   HW2      717    1.545118928    1.564266682    0.471113175
  225 SOL   OW       718    1.080510736    0.155614987    1.273769140
  225 SOL   HW1      719    1.058866620    0.249365851    1.263914108
  225 SOL   HW2      720    1.174703479    0.152975813    1.245397449
  226 SOL   OW       721    0.217132136    2.481387854    2.872020245
  226 SOL   HW1      722    0.271738678    2.466878414    2.957897186
  226 SOL   HW2      723    0.122254387    2.492637396    2.901007175
  227 SOL   OW       724    1.939947367    1.600991249    2.632330179
  227 SOL   HW1      725    1.890547514    1.589243650    2.546794415
  227 SOL   HW2      726    1.958594203    1.514078856    2.657876492
  228 SOL   OW       727    2.087470531    1.282961011    1.111109018
  228 SOL   HW1      728    2.083819628    1.219170809    1.187602401
  228 SOL   HW2      729    2.005829573    1.330963612    1.119458318
  229 SOL   OW       730    1.210773587    0.952112257    0.506767690
  229 SOL   HW1      731    1.234048486    0.983224154    0.416252017
  229 SOL   HW2      732    1.137991905    1.020561934    0.522321582
  230 SOL   OW       733    2.883882284    2.606607437    0.650513291
  230 SOL   HW1      734    2.829443216    2.525619984    0.637018025
  230 SOL   HW2      735    2.842338800    2.648089409    0.726660550
  231 SOL   OW       736    0.594773412    2.737330675    2.174033880
  231 SOL   HW1      737    0.670938015    2.765151978    2.120915651
  231 SOL   HW2      738    0.567612886    2.664122343    2.125027657
  232 SOL   OW       739    1.064576387    0.414557487    1.205331922
  232 SOL   HW1      740    1.025179982    0.500584602    1.241985440
  232 SOL   HW2      741    1.081270933    0.431835204    1.113251925
  233 SOL   OW       742    2.985606194    2.175337791    0.793789864
  233 SOL   HW1      743    2.913454056    2.130592823    0.751125872
  233 SOL   HW2      744    3.029212952    2.096674442    0.831602871
  234 SOL   OW       745    1.213009596    0.078900188    0.685710371
  234 SOL   HW1      746    1.208094239    0.092245445    0.590411067
  234 SOL   HW2      747    1.113397121    0.100487433    0.708693445
  235 SOL   OW       748    2.584537029    0.177103460    0.657598078
  235 SOL   HW1      749    2.675096989    0.218403041    0.636726439
  235 SOL   HW2      750    2.581109762    0.091289975    0.608928084
  236 SOL   OW       751    1.974329352    1.208566189    2.373618841
  236 SOL   HW1      752    1.895331860    1.263396144    2.333044767
  236 SOL   HW2      753    2.038625002    1.285203457    2.379023790
  237 SOL   OW       754    1.069158435    2.076687098    0.390982032
  237 SOL   HW1      755    1.002743363    2.141936779    0.408914000
  237 SOL   HW2      756    1.079596639    2.062594652    0.300936162
  238 SOL   OW       757    0.181789473    1.226258993    0.463367224
  238 SOL   HW1      758    0.269386739    1.259336829    0.493300438
  238 SOL   HW2      759    0.206823915    1.188997149    0.378921449
  239 SOL   OW       760    1.202163696    1.004751444    1.027653337
  239 SOL   HW1      761    1.148068070    0.921609938    1.041913748
  239 SOL   HW2      762    1.220879436    0.998461485    0.935489476
  240 SOL   OW       763    1.197129726    1.336056352    1.454789281
  240 SOL   HW1      764    1.234501958    1.296603680    1.369478822
  240 SOL   HW2      765    1.283511043    1.357825756    1.498017311
  241 SOL   OW       766    0.128049359    1.433432817    0.997579157
  241 SOL   HW1      767    0.083959550    1.376878262    1.068070412
  241 SOL   HW2      768    0.205157563    1.381587744    0.960526586
  242 SOL   OW       769    0.297198325    2.622239590    0.825304627
  242 SOL   HW1      770    0.232015043    2.636457920    0.895352185
  242 SOL   HW2      771    0.260959059    2.563670635    0.762767076
  243 SOL   OW       772    2.738430738    2.324609041    1.691102743
  243 SOL   HW1      773    2.828988791    2.299232244    1.648036003
  243 SOL   HW2      774    2.753933668    2.308594942    1.785290956
  244 SOL   OW       775    2.479452372    2.913436890    1.511968613
  244 SOL   HW1      776    2.500132799    2.995104074    1.461839914
  244 SOL   HW2      777    2.385674000    2.906844854    1.498028040
  245 SOL   OW       778    2.516245365    2.987377644    2.152515888
  245 SOL   HW1      779    2.446894884    3.024723053    2.215669632
  245 SOL   HW2      780    2.462500572    2.914080143    2.124057531
  246 SOL   OW       781    0.923943043    2.429022074    2.331244946
  246 SOL   HW1      782    0.916796744    2.527851820    2.322623014
  246 SOL   HW2      783    1.018733859    2.414553165    2.318376780
  247 SOL   OW       784    2.588321924    1.068486452    2.934801102
  247 SOL   HW1      785    2.618821383    1.139817476    2.990725279
  247 SOL   HW2      786    2.540988684    1.116863251    2.867919207
  248 SOL   OW       787    0.607003331    2.285495281    1.584401727
  248 SOL   HW1      788    0.563775659    2.227253914    1.643873930
  248 SOL   HW2      789    0.558389962    2.373147488    1.584802389
  249 SOL   OW       790    1.485534549    0.527283192    0.139158696
  249 SOL   HW1      791    1.563547373    0.587936640    0.156500995
  249 SOL   HW2      792    1.418051004    0.583167851    0.175701052
  250 SOL   OW       793    1.065271378    0.120497361    0.403787822
  250 SOL   HW1      794    1.166544914    0.118008196    0.377994567
  250 SOL   HW2      795    1.056659579    0.211716995    0.412699968
  251 SOL   OW       796    2.947239399    2.036747456    1.817157626
  251 SOL   HW1      797    2.979972363    2.107720852    1.761904478
  251 SOL   HW2      798    2.867653847    2.014189005    1.766161203
  252 SOL   OW       799    2.517159224    1.995478392    2.815510273
  252 SOL   HW1      800    2.479606152    2.059340239    2.874448299
  252 SOL   HW2      801    2.518760681    1.914095521    2.868467569
  253 SOL   OW       802    1.232742310    1.822740316    1.269107938
  253 SOL   HW1      803    1.232508898    1.849566340    1.169572234
  253 SOL   HW2      804    1.214864850    1.728735924    1.251869440
  254 SOL   OW       805    2.321013927    1.337571740    2.947328568
  254 SOL   HW1      806    2.374223471    1.291553617    2.882039547
  254 SOL   HW2      807    2.286868334    1.266995668    3.007383347
  255 SOL   OW       808    2.982691765    1.423385620    0.262712508
  255 SOL   HW1      809    2.937463045    1.473444104    0.190009713
  255 SOL   HW2      810    3.071440935    1.440676093    0.234913290
  256 SOL   OW       811    1.755457163    1.684094191    0.168843433
  256 SOL   HW1      812    1.792791605    1.751279235    0.108127892
  256 SOL   HW2      813    1.787001610    1.606314659    0.126812488
  257 SOL   OW       814    0.558191359    0.266757756    2.990686417
  257 SOL   HW1      815    0.586450934    0.209989041    2.915223598
  257 SOL   HW2      816    0.528427005    0.205714792    3.059375763
  258 SOL   OW       817    0.158974245    0.927232087    0.881233752
  258 SOL   HW1      818    0.233155176    0.969481051    0.931740403
  258 SOL   HW2      819    0.207876220    0.881082177    0.807706118
  259 SOL   OW       820    2.012270927    2.086988449    1.640033245
  259 SOL   HW1      821    1.922165751    2.041486025    1.643952966
  259 SOL   HW2      822    2.056451797    2.023901939    1.697418451
  260 SOL   OW       823    0.112530194    2.648485899    1.054547906
  260 SOL   HW1      824    0.142804593    2.651846886    1.145437121
  260 SOL   HW2      825    0.063961402    2.566456556    1.040801287
  261 SOL   OW       826    1.299442649    1.800777078    0.752483189
  261 SOL   HW1      827    1.350557089    1.725179315    0.794007182
  261 SOL   HW2      828    1.251816750    1.833840489    0.826377094
  262 SOL   OW       829    2.841568470    0.460415602    0.787590325
  262 SOL   HW1      830    2.746280909    0.472546518    0.816271245
  262 SOL   HW2      831    2.890920639    0.500839114    0.862600982
  263 SOL   OW       832    2.993813276    2.717835903    1.796915412
  263 SOL   HW1      833    3.058374643    2.782524586    1.766355634
  263 SOL   HW2      834    3.021209955    2.688353539    1.882323265
  264 SOL   OW       835    1.966249347    2.129699230    2.563980818
  264 SOL   HW1      836    1.977650642    2.062004328    2.631206036
  264 SOL   HW2      837    1.968978047    2.216637850    2.611839056
  265 SOL   OW       838    1.450766563    1.986364365    2.061689854
  265 SOL   HW1      839    1.531738162    1.959275723    2.020514488
  265 SOL   HW2      840    1.467629194    1.984574199    2.157876253
  266 SOL   OW       841    2.014830589    2.041909933    0.362881094
  266 SOL   HW1      842    2.036396980    2.133953333    0.368753076
  266 SOL   HW2      843    1.925300837    2.043751240    0.331829965
  267 SOL   OW       844    2.711871624    2.565937281    1.268567443
  267 SOL   HW1      845    2.731945276    2.613746643    1.348563313
  267 SOL   HW2      846    2.614231825    2.586411715    1.250189185
  268 SOL   OW       847    2.225351095    0.510448456    0.930890203
  268 SOL   HW1      848    2.138002872    0.470987618    0.953192830
  268 SOL   HW2      849    2.271328449    0.430300862    0.933992267
  269 SOL   OW       850    0.725723624    2.706688404    1.678226829
  269 SOL   HW1      851    0.731825054    2.636018276    1.750214100
  269 SOL   HW2      852    0.757744610    2.653741360    1.601179004
  270 SOL   OW       853    0.187542722    2.591384411    2.293963671
  270 SOL   HW1      854    0.192162886    2.496886253    2.265629530
  270 SOL   HW2      855    0.211479798    2.580143929    2.384710789
  271 SOL   OW       856    1.025146246    1.366473675    2.997622490
  271 SOL   HW1      857    1.002496600    1.388876319    3.089303017
  271 SOL   HW2      858    1.106770158    1.407479644    2.996499777
  272 SOL   OW       859    2.188447475    2.467472076    1.344262838
  272 SOL   HW1      860    2.266784191    2.513939142    1.375151992
  272 SOL   HW2      861    2.144539118    2.449503422    1.433806062
  273 SOL   OW       862    1.969660401    2.315060854    0.411870897
  273 SOL   HW1      863    1.921200156    2.365341425    0.340517044
  273 SOL   HW2      864    1.904929519    2.321287632    0.483264893
  274 SOL   OW       865    0.527067363    1.248242021    2.228270769
  274 SOL   HW1      866    0.495418847    1.274803042    2.142192125
  274 SOL   HW2      867    0.570248187    1.170666695    2.203616858
  275 SOL   OW       868    2.656652212    2.406319141    0.904368162
  275 SOL   HW1      869    2.655178547    2.404530048    0.805048287
  275 SOL   HW2      870    2.622107983    2.499810457    0.923972487
  276 SOL   OW       871    2.744127512    2.843037367    1.567655921
  276 SOL   HW1      872    2.756361008    2.849123001    1.666371942
  276 SOL   HW2      873    2.651255131    2.829499960    1.573419213
  277 SOL   OW       874    2.482408047    2.663759947    1.268041849
  277 SOL   HW1      875    2.434459209    2.663819313    1.348755479
  277 SOL   HW2      876    2.427982807    2.727627277    1.215136886
  278 SOL   OW       877    1.489094138    1.355495334    2.324363232
  278 SOL   HW1      878    1.446459889    1.283437848    2.269583225
  278 SOL   HW2      879    1.422472239    1.424119711    2.335394382
  279 SOL   OW       880    0.056173299    0.008848382    2.676029921
  279 SOL   HW1      881    0.024518536   -0.085074902    2.675973654
  279 SOL   HW2      882   -0.018876553    0.065377474    2.694319248
  280 SOL   OW       883    2.431564331    0.316425085    1.068763494
  280 SOL   HW1      884    2.451718807    0.224300906    1.079015970
  280 SOL   HW2      885    2.442038774    0.350945204    1.163203955
  281 SOL   OW       886    2.884622097    0.846757829    0.866149843
  281 SOL   HW1      887    2.888259649    0.769173682    0.921800315
  281 SOL   HW2      888    2.974188328    0.870078862    0.840337574
  282 SOL   OW       889    1.602783442    0.024136167    0.500934660
  282 SOL   HW1      890    1.618648767    0.024817795    0.405931801
  282 SOL   HW2      891    1.619267583   -0.072819471    0.526265740
  283 SOL   OW       892    2.115429878    1.764167666    0.413699716
  283 SOL   HW1      893    2.186223745    1.773438931    0.486940414
  283 SOL   HW2      894    2.093097925    1.860604048    0.395048231
  284 SOL   OW       895    1.855946660    1.730475187    1.008262873
  284 SOL   HW1      896    1.877854466    1.657214642    0.949213803
  284 SOL   HW2      897    1.937393904    1.737160087    1.066505432
  285 SOL   OW       898    1.752941132    2.737601757    1.213544965
  285 SOL   HW1      899    1.803985715    2.655194044    1.205874085
  285 SOL   HW2      900    1.666158199    2.706392527    1.171733975
  286 SOL   OW       901    1.935293078    2.484555721    1.988472819
  286 SOL   HW1      902    1.890066028    2.404701233    2.011728048
  286 SOL   HW2      903    1.917845488    2.483558893    1.895161510
  287 SOL   OW       904    0.997886062    1.313833117    0.830042899
  287 SOL   HW1      905    0.978253126    1.396260023    0.784948528
  287 SOL   HW2      906    1.073748231    1.345935345    0.884462595
  288 SOL   OW       907    2.667959452    1.267552853    0.822377503
  288 SOL   HW1      908    2.691545010    1.341854334    0.762871206
  288 SOL   HW2      909    2.757957220    1.227921724    0.838267028
  289 SOL   OW       910    2.499411821    0.769081473    2.500133753
  289 SOL   HW1      911    2.415980816    0.739056170    2.463627815
  289 SOL   HW2      912    2.545892954    0.693898857    2.545079947
  290 SOL   OW       913    0.038794763    0.838635445    2.425726891
  290 SOL   HW1      914    0.064557984    0.770020783    2.354923964
  290 SOL   HW2      915   -0.045704126    0.806695700    2.458512306
  291 SOL   OW       916    2.791623354    2.500235081    2.416849852
  291 SOL   HW1      917    2.797900200    2.555188656    2.337091446
  291 SOL   HW2      918    2.832164288    2.417618752    2.376095772
  292 SOL   OW       919    0.116293661    2.094618082    1.215499401
  292 SOL   HW1      920    0.086272329    2.180827141    1.252394438
  292 SOL   HW2      921    0.078898244    2.035502434    1.277340174
  293 SOL   OW       922    1.245548248    2.412008286    2.614831448
  293 SOL   HW1      923    1.258967042    2.399906874    2.516053200
  293 SOL   HW2      924    1.171608090    2.479867220    2.615776062
  294 SOL   OW       925    1.114401698    2.677811623    2.574720383
  294 SOL   HW1      926    1.138378620    2.715287685    2.488173962
  294 SOL   HW2      927    1.077216744    2.758019447    2.607578516
  295 SOL   OW       928    0.099993005    2.784729481    2.983392000
  295 SOL   HW1      929    0.001450539    2.770555019    2.967128515
  295 SOL   HW2      930    0.137894094    2.741685152    2.906317234
  296 SOL   OW       931    1.155765414    1.522934914    0.392738760
  296 SOL   HW1      932    1.129245758    1.603131175    0.338294685
  296 SOL   HW2      933    1.079631209    1.464976192    0.365047157
  297 SOL   OW       934    1.642090201    2.958463430    2.264466763
  297 SOL   HW1      935    1.696273208    3.039915800    2.245458603
  297 SOL   HW2      936    1.704754233    2.886403084    2.256544113
  298 SOL   OW       937    2.741863489    0.705524266    1.853213668
  298 SOL   HW1      938    2.748433590    0.792144716    1.883738995
  298 SOL   HW2      939    2.678722620    0.663128316    1.915156364
  299 SOL   OW       940    2.690656662    1.940902710    2.163843870
  299 SOL   HW1      941    2.619371653    1.913396239    2.219022512
  299 SOL   HW2      942    2.670618296    1.899631739    2.080656290
  300 SOL   OW       943    0.289742082    2.387390137    1.474928737
  300 SOL   HW1      944    0.301362425    2.298732758    1.432877779
  300 SOL   HW2      945    0.264783531    2.360693693    1.567684412
  301 SOL   OW       946    0.841708958    1.279712796    1.163136721
  301 SOL   HW1      947    0.884029746    1.362939835    1.191917419
  301 SOL   HW2      948    0.903751552    1.213517904    1.205368161
  302 SOL   OW       949    1.523643613    0.940417826    2.758579493
  302 SOL   HW1      950    1.499944568    1.009530902    2.813137531
  302 SOL   HW2      951    1.605135560    0.905767083    2.803096533
  303 SOL   OW       952    2.784485340    0.754526794    2.521246195
  303 SOL   HW1      953    2.698219776    0.787082732    2.488639832
  303 SOL   HW2      954    2.768283844    0.750867009    2.614328146
  304 SOL   OW       955    0.597048044    2.888686895    0.936505079
  304 SOL   HW1      956    0.603549898    2.934880733    0.853541076
  304 SOL   HW2      957    0.657539785    2.946414709    0.988272786
  305 SOL   OW       958    1.315272570    1.906959653    2.456530809
  305 SOL   HW1      959    1.261567831    1.818017721    2.462395430
  305 SOL   HW2      960    1.249474168    1.967922449    2.447748423
  306 SOL   OW       961    2.483104706    0.183828458    1.946145415
  306 SOL   HW1      962    2.508285761    0.136506662    2.026455641
  306 SOL   HW2      963    2.462131500    0.121466972    1.876292348
  307 SOL   OW       964    2.354223967    1.702998400    2.022242308
  307 SOL   HW1      965    2.295056820    1.774511218    2.050343990
  307 SOL   HW2      966    2.443123102    1.745759010    2.024508715
  308 SOL   OW       967    2.575401068    0.503037989    0.913268566
  308 SOL   HW1      968    2.610757828    0.562794030    0.987439275
  308 SOL   HW2      969    2.533805847    0.433362395    0.967704296
  309 SOL   OW       970    2.827785730    1.569729328    2.349270582
  309 SOL   HW1      971    2.749024868    1.561807632    2.300051212
  309 SOL   HW2      972    2.794245005    1.618006706    2.424432516
  310 SOL   OW       973    1.336856723    2.579292774    1.271278381
  310 SOL   HW1      974    1.259292960    2.638402224    1.281835318
  310 SOL   HW2      975    1.338100553    2.517081976    1.350357771
  311 SOL   OW       976    0.362766594    0.055404257    1.760302782
  311 SOL   HW1      977    0.411993206    0.012783509    1.837976456
  311 SOL   HW2      978    0.375601590    0.151164487    1.771290302
  312 SOL   OW       979    1.205574512    1.949326515    1.020528555
  312 SOL   HW1      980    1.152637243    2.012210369    0.964041173
  312 SOL   HW2      981    1.288539410    1.991973758    1.009505391
  313 SOL   OW       982    1.530337930    2.706172705    1.106292725
  313 SOL   HW1      983    1.488544464    2.713057756    1.020036221
  313 SOL   HW2      984    1.473197341    2.633466482    1.146807432
  314 SOL   OW       985    0.219148204    0.263703108    0.440325499
  314 SOL   HW1      986    0.183086395    0.319476217    0.510104120
  314 SOL   HW2      987    0.142571628    0.204398558    0.412073165
  315 SOL   OW       988    2.482760668    1.117467046    0.261862576
  315 SOL   HW1      989    2.477763414    1.177887082    0.337959439
  315 SOL   HW2      990    2.443900108    1.038515449    0.300978482
  316 SOL   OW       991    0.369302809    1.695950389    2.927376509
  316 SOL   HW1      992    0.466270894    1.715673566    2.919951439
  316 SOL   HW2      993    0.329160422    1.787526369    2.922540426
  317 SOL   OW       994    0.848624051    2.087259769    1.382801652
  317 SOL   HW1      995    0.937621057    2.081866741    1.350937366
  317 SOL   HW2      996    0.844293177    2.180464029    1.401027203
  318 SOL   OW       997    0.564982951    1.765631318    0.587388277
  318 SOL   HW1      998    0.589563906    1.700624943    0.661721885
  318 SOL   HW2      999    0.576707900    1.852650046    0.629411995
  319 SOL   OW      1000    0.999265194    2.842409849    0.403346717
  319 SOL   HW1     1001    0.980082154    2.904056072    0.476519287
  319 SOL   HW2     1002    1.034398079    2.908640385    0.343162894
  320 SOL   OW      1003    2.164993048    1.910798907    2.085402250
  320 SOL   HW1     1004    2.120129585    1.995138407    2.073847532
  320 SOL   HW2     1005    2.093580723    1.861953259    2.139164925
  321 SOL   OW      1006    2.251042128    0.415083975    2.264882088
  321 SOL   HW1     1007    2.287557125    0.449084371    2.171407461
  321 SOL   HW2     1008    2.290837288    0.325255811    2.267308235
  322 SOL   OW      1009    0.770025015    0.392774642    0.553002417
  322 SOL   HW1     1010    0.679960847    0.367423147    0.580206335
  322 SOL   HW2     1011    0.774053335    0.340562075    0.470682055
  323 SOL   OW      1012    0.355301648    2.696529627    1.941040516
  323 SOL   HW1     1013    0.366308093    2.607232809    1.977369070
  323 SOL   HW2     1014    0.416402251    2.701958656    1.866098166
  324 SOL   OW      1015    0.042099506    2.063951015    0.435048789
  324 SOL   HW1     1016    0.107334904    2.115235567    0.384161949
  324 SOL   HW2     1017    0.090863220    1.976352334    0.446926922
  325 SOL   OW      1018    0.504164994    2.198233366    1.833829403
  325 SOL   HW1     1019    0.463797629    2.132405758    1.888830781
  325 SOL   HW2     1020    0.576946855    2.230520248    1.886372685
  326 SOL   OW      1021    0.577256382    1.900949836    2.960284710
  326 SOL   HW1     1022    0.574145615    1.925126672    2.863666058
  326 SOL   HW2     1023    0.668071866    1.876189113    2.976906776
  327 SOL   OW      1024    0.883203328    2.273984194    1.647327542
  327 SOL   HW1     1025    0.788201153    2.284172297    1.619260788
  327 SOL   HW2     1026    0.872032225    2.208397388    1.715304732
  328 SOL   OW      1027    0.183123916    1.517884016    2.997088909
  328 SOL   HW1     1028    0.190397441    1.510123372    3.095232487
  328 SOL   HW2     1029    0.242873117    1.591057777    2.983617544
  329 SOL   OW      1030    0.574238479    0.676724076    2.515632391
  329 SOL   HW1     1031    0.503180146    0.734803140    2.485018253
  329 SOL   HW2     1032    0.529903471    0.606959224    2.560832024
  330 SOL   OW      1033    0.187548563    0.759219110    1.441112518
  330 SOL   HW1     1034    0.126922578    0.836858213    1.459964991
  330 SOL   HW2     1035    0.129302740    0.687698305    1.474097252
  331 SOL   OW      1036    1.421172142    0.362689316    2.912519217
  331 SOL   HW1     1037    1.439773560    0.275301456    2.950918198
  331 SOL   HW2     1038    1.445963860    0.424676329    2.981616259
  332 SOL   OW      1039    1.767909646    0.525063753    1.434854388
  332 SOL   HW1     1040    1.678049922    0.521843791    1.481245995
  332 SOL   HW2     1041    1.821405888    0.465704441    1.491937876
  333 SOL   OW      1042    2.260600328    0.783810675    1.027814507
  333 SOL   HW1     1043    2.215318203    0.695812523    1.030157924
  333 SOL   HW2     1044    2.216435671    0.834346652    1.097810030
  334 SOL   OW      1045    0.329362780    2.772279024    0.566946685
  334 SOL   HW1     1046    0.340352774    2.719808102    0.489477962
  334 SOL   HW2     1047    0.312137246    2.696543932    0.628135622
  335 SOL   OW      1048    2.582038879    1.967031837    0.276306599
  335 SOL   HW1     1049    2.672873259    2.006985903    0.275807410
  335 SOL   HW2     1050    2.604287386    1.881252766    0.309541166
  336 SOL   OW      1051    2.923284292    0.647228777    1.052649617
  336 SOL   HW1     1052    2.926135540    0.552906752    1.087007880
  336 SOL   HW2     1053    3.003126144    0.685457647    1.094164491
  337 SOL   OW      1054    1.719134688    0.629155040    2.442662001
  337 SOL   HW1     1055    1.732878327    0.664220393    2.533416748
  337 SOL   HW2     1056    1.742691159    0.532757401    2.452466965
  338 SOL   OW      1057    0.089786626    1.980269194    0.948665679
  338 SOL   HW1     1058    0.038425960    1.905122638    0.957483828
  338 SOL   HW2     1059    0.100543357    2.003260612    1.041293502
  339 SOL   OW      1060    2.965500116    1.141994238    0.849994838
  339 SOL   HW1     1061    3.048626900    1.157995820    0.899007440
  339 SOL   HW2     1062    2.924058914    1.072628736    0.907125115
  340 SOL   OW      1063    1.802273273    0.162300587    1.351872563
  340 SOL   HW1     1064    1.750899434    0.084852256    1.366654158
  340 SOL   HW2     1065    1.761688113    0.183760539    1.265301466
  341 SOL   OW      1066    1.125725150    2.381102085    0.104087077
  341 SOL   HW1     1067    1.140473962    2.477658272    0.098932520
  341 SOL   HW2     1068    1.159969211    2.346379280    0.020328792
  342 SOL   OW      1069    0.961044788    2.622933388    0.829591930
  342 SOL   HW1     1070    0.882597208    2.570682287    0.866276324
  342 SOL   HW2     1071    0.961292267    2.695913076    0.887190402
  343 SOL   OW      1072    0.503294945    1.065268993    1.567973495
  343 SOL   HW1     1073    0.469343811    0.973319232    1.581060410
  343 SOL   HW2     1074    0.439878464    1.115963578    1.630214691
  344 SOL   OW      1075    0.733870327    0.158892244    2.314769030
  344 SOL   HW1     1076    0.727677464    0.064933695    2.352152824
  344 SOL   HW2     1077    0.661609709    0.158374563    2.249657869
  345 SOL   OW      1078    0.711434543    0.877216578    2.664907455
  345 SOL   HW1     1079    0.762514710    0.811602294    2.707227707
  345 SOL   HW2     1080    0.668860376    0.824893117    2.596008062
  346 SOL   OW      1081    0.851847887    1.771704674    2.953525782
  346 SOL   HW1     1082    0.814068556    1.708402038    3.014591932
  346 SOL   HW2     1083    0.885342896    1.721952319    2.876458883
  347 SOL   OW      1084    1.072859764    0.482794702    0.926457286
  347 SOL   HW1     1085    1.161082506    0.441951931    0.932994366
  347 SOL   HW2     1086    1.062305450    0.486817956    0.826109707
  348 SOL   OW      1087    1.932053447    2.241608381    1.123065948
  348 SOL   HW1     1088    2.025287151    2.231096268    1.149653435
  348 SOL   HW2     1089    1.899407744    2.149575472    1.118291020
  349 SOL   OW      1090    0.613760412    2.258908987    0.745628178
  349 SOL   HW1     1091    0.602658689    2.292452335    0.652545273
  349 SOL   HW2     1092    0.663349271    2.174726248    0.736975789
  350 SOL   OW      1093    0.957517922    0.441502631    2.847479820
  350 SOL   HW1     1094    1.050502181    0.424148828    2.820963621
  350 SOL   HW2     1095    0.941005647    0.526283801    2.806658745
  351 SOL   OW      1096    2.615471601    2.131086111    1.270094991
  351 SOL   HW1     1097    2.673728228    2.197146416    1.299453497
  351 SOL   HW2     1098    2.597409248    2.152048588    1.174009204
  352 SOL   OW      1099    0.136589378    2.464977503    0.653128088
  352 SOL   HW1     1100    0.055064399    2.516548395    0.630912483
  352 SOL   HW2     1101    0.104369327    2.375247717    0.670837343
  353 SOL   OW      1102    1.840981603    1.169969559    0.568411648
  353 SOL   HW1     1103    1.886312842    1.102972746    0.515315354
  353 SOL   HW2     1104    1.847352624    1.124689579    0.654869974
  354 SOL   OW      1105    1.299180984    2.303835154    1.798243403
  354 SOL   HW1     1106    1.244737029    2.283994675    1.718062639
  354 SOL   HW2     1107    1.301405311    2.212780237    1.839810967
  355 SOL   OW      1108    0.840634048    0.292189360    1.680364966
  355 SOL   HW1     1109    0.924951375    0.336509347    1.671323061
  355 SOL   HW2     1110    0.859887898    0.234315500    1.756812334
  356 SOL   OW      1111    1.476711035    0.521798313    2.336933613
  356 SOL   HW1     1112    1.550399303    0.579555273    2.371404409
  356 SOL   HW2     1113    1.523760200    0.483309478    2.259003401
  357 SOL   OW      1114    1.899266124    2.441906929    2.464114904
  357 SOL   HW1     1115    1.843774438    2.437191725    2.542597055
  357 SOL   HW2     1116    1.855050564    2.365677595    2.415795088
  358 SOL   OW      1117    0.920724094    2.099625349    1.870576620
  358 SOL   HW1     1118    1.000277758    2.057446957    1.835851312
  358 SOL   HW2     1119    0.882199466    2.030546665    1.921417117
  359 SOL   OW      1120    0.101277642    2.125961542    2.450577021
  359 SOL   HW1     1121    0.045093611    2.172022581    2.384768963
  359 SOL   HW2     1122    0.106965527    2.188821316    2.524721622
  360 SOL   OW      1123    0.386353105    1.004226208    1.049716473
  360 SOL   HW1     1124    0.444361299    0.942370474    0.998873353
  360 SOL   HW2     1125    0.459515184    1.049731255    1.097048759
  361 SOL   OW      1126    2.099669456    0.202576548    0.157321692
  361 SOL   HW1     1127    2.171585560    0.238761112    0.095186934
  361 SOL   HW2     1128    2.151354074    0.130044132    0.206743076
  362 SOL   OW      1129    1.185096979    2.631064415    0.213806733
  362 SOL   HW1     1130    1.206465244    2.576878071    0.298084319
  362 SOL   HW2     1131    1.086496830    2.623928547    0.201569438
  363 SOL   OW      1132    0.777753592    1.619171023    0.192132547
  363 SOL   HW1     1133    0.773449540    1.680374980    0.273687303
  363 SOL   HW2     1134    0.681883216    1.610467672    0.181324407
  364 SOL   OW      1135    0.303170443    2.687662363    2.697986126
  364 SOL   HW1     1136    0.396725208    2.680434465    2.716495752
  364 SOL   HW2     1137    0.274757683    2.614370346    2.755289555
  365 SOL   OW      1138    2.406436920    2.603698969    1.909120440
  365 SOL   HW1     1139    2.386292458    2.573179007    1.999190807
  365 SOL   HW2     1140    2.339616299    2.664304733    1.882070422
  366 SOL   OW      1141    2.480514526    2.733706951    0.175605193
  366 SOL   HW1     1142    2.462150097    2.829896927    0.155727461
  366 SOL   HW2     1143    2.512985706    2.704870462    0.089903720
  367 SOL   OW      1144    2.549527168    1.019167185    1.714549661
  367 SOL   HW1     1145    2.452246666    1.009214640    1.731329560
  367 SOL   HW2     1146    2.570968390    1.102398276    1.761732221
  368 SOL   OW      1147    0.181026936    1.035801888    1.206257820
  368 SOL   HW1     1148    0.263527244    1.034444332    1.147595167
  368 SOL   HW2     1149    0.154377773    0.943558931    1.207230806
  369 SOL   OW      1150    0.614316046    1.629214525    2.252157211
  369 SOL   HW1     1151    0.697970569    1.661659718    2.203132391
  369 SOL   HW2     1152    0.556689262    1.598184347    2.179119825
  370 SOL   OW      1153    0.872342348    2.263727665    0.126847833
  370 SOL   HW1     1154    0.966357887    2.300548077    0.142303199
  370 SOL   HW2     1155    0.887888372    2.206398726    0.051184513
  371 SOL   OW      1156    0.721051157    2.016837597    0.211643726
  371 SOL   HW1     1157    0.628251135    2.030977011    0.191129580
  371 SOL   HW2     1158    0.767760396    2.084277391    0.162909254
  372 SOL   OW      1159    1.548384428    0.099656902    2.936821461
  372 SOL   HW1     1160    1.620419860    0.110620104    2.869434834
  372 SOL   HW2     1161    1.585867286    0.018719483    2.976931334
  373 SOL   OW      1162    1.898845077    1.795916677    1.381789088
  373 SOL   HW1     1163    1.927759528    1.773133159    1.476818085
  373 SOL   HW2     1164    1.813890815    1.838021874    1.395708561
  374 SOL   OW      1165    1.759897113    1.241883874    2.001176119
  374 SOL   HW1     1166    1.789670587    1.153835893    2.033716917
  374 SOL   HW2     1167    1.828836799    1.254331708    1.936425447
  375 SOL   OW      1168    2.330580473    0.356785625    0.005389973
  375 SOL   HW1     1169    2.356685877    0.310261190   -0.076350689
  375 SOL   HW2     1170    2.384893179    0.437165141   -0.009720564
  376 SOL   OW      1171    0.052653290    0.086936548    1.063908339
  376 SOL   HW1     1172    0.094541088    0.076991983    1.147586584
  376 SOL   HW2     1173    0.102131434    0.154075444    1.017278552
  377 SOL   OW      1174    2.490537882    0.584197640    2.962448597
  377 SOL   HW1     1175    2.473964453    0.648057640    2.886111021
  377 SOL   HW2     1176    2.534706116    0.639705360    3.028102875
  378 SOL   OW      1177    1.798770547    1.371138453    2.863904476
  378 SOL   HW1     1178    1.859134316    1.299610734    2.862249374
  378 SOL   HW2     1179    1.785541177    1.384875894    2.959802151
  379 SOL   OW      1180    1.818090320    2.163839102    1.868805051
  379 SOL   HW1     1181    1.773907304    2.118993759    1.791556716
  379 SOL   HW2     1182    1.820296288    2.251536608    1.831510663
  380 SOL   OW      1183    0.405922234    2.005769968    0.119395681
  380 SOL   HW1     1184    0.466339260    1.966988325    0.051511928
  380 SOL   HW2     1185    0.335352987    2.032145023    0.053570069
  381 SOL   OW      1186    1.920424342    0.384114683    2.665733099
  381 SOL   HW1     1187    1.862015486    0.418522924    2.735643387
  381 SOL   HW2     1188    1.985381365    0.340960771    2.726402760
  382 SOL   OW      1189    1.553542614    2.823390245    1.946978688
  382 SOL   HW1     1190    1.583113790    2.769408226    2.021588802
  382 SOL   HW2     1191    1.557929516    2.760415554    1.862496972
  383 SOL   OW      1192    2.603868246    0.392588735    1.309613228
  383 SOL   HW1     1193    2.508329391    0.399803400    1.322901487
  383 SOL   HW2     1194    2.626621723    0.487268358    1.305283427
  384 SOL   OW      1195    2.381642342    1.563032508    1.796976805
  384 SOL   HW1     1196    2.472321510    1.593042731    1.798982024
  384 SOL   HW2     1197    2.363663435    1.616581202    1.879239559
  385 SOL   OW      1198    2.283990145    0.122380786    2.251742840
  385 SOL   HW1     1199    2.222739220    0.146283075    2.178638220
  385 SOL   HW2     1200    2.217199087    0.086575419    2.315925837
  386 SOL   OW      1201    2.559959650    1.197462082    1.100506425
  386 SOL   HW1     1202    2.609847069    1.280002117    1.112403274
  386 SOL   HW2     1203    2.545961857    1.191587329    1.008403897
  387 SOL   OW      1204    2.585277557    1.466560960    2.257861376
  387 SOL   HW1     1205    2.512190580    1.422427177    2.318322659
  387 SOL   HW2     1206    2.598942518    1.403358817    2.181440353
  388 SOL   OW      1207    1.575186610    0.872878373    2.094889641
  388 SOL   HW1     1208    1.619680882    0.802965641    2.144635916
  388 SOL   HW2     1209    1.599152684    0.851879597    2.002969742
  389 SOL   OW      1210    1.202997088    1.215576887    1.210233688
  389 SOL   HW1     1211    1.133681655    1.155694604    1.247656107
  389 SOL   HW2     1212    1.224578261    1.161955118    1.128513813
  390 SOL   OW      1213    2.963380337    2.039505720    2.858086824
  390 SOL   HW1     1214    2.874457598    2.060780525    2.819834948
  390 SOL   HW2     1215    3.006083012    2.120275497    2.836717367
  391 SOL   OW      1216    1.835243225    1.594696164    2.380203247
  391 SOL   HW1     1217    1.792419910    1.526604533    2.320626497
  391 SOL   HW2     1218    1.758077145    1.641567349    2.408702850
  392 SOL   OW      1219    1.695268035    0.686858118    0.165013611
  392 SOL   HW1     1220    1.728920817    0.766866684    0.118336655
  392 SOL   HW2     1221    1.781489730    0.646499276    0.194482729
  393 SOL   OW      1222    2.083865404    0.782231688    0.372577101
  393 SOL   HW1     1223    2.147494793    0.748825073    0.432775050
  393 SOL   HW2     1224    2.102762938    0.732447028    0.289353371
  394 SOL   OW      1225    0.567803442    1.256675959    2.676470518
  394 SOL   HW1     1226    0.471117437    1.277917385    2.662915707
  394 SOL   HW2     1227    0.593265653    1.334854126    2.727263927
  395 SOL   OW      1228    2.890033245    2.826546192    2.077510595
  395 SOL   HW1     1229    2.967834473    2.790812254    2.118361473
  395 SOL   HW2     1230    2.923966169    2.873684168    2.005549431
  396 SOL   OW      1231    1.416697264    1.866314530    0.514763951
  396 SOL   HW1     1232    1.387568593    1.964143038    0.497459203
  396 SOL   HW2     1233    1.365844727    1.849088430    0.597191989
  397 SOL   OW      1234    0.432634741    0.547625721    2.179312468
  397 SOL   HW1     1235    0.349937469    0.490829229    2.186516047
  397 SOL   HW2     1236    0.479437917    0.526775837    2.266827822
  398 SOL   OW      1237    2.956392527    2.224882841    1.573345423
  398 SOL   HW1     1238    2.948024511    2.134321928    1.532230496
  398 SOL   HW2     1239    2.969973564    2.275342464    1.488137126
  399 SOL   OW      1240    2.473438501    1.223120809    2.759297371
  399 SOL   HW1     1241    2.438811779    1.154643655    2.704119921
  399 SOL   HW2     1242    2.504451990    1.295953631    2.703451395
  400 SOL   OW      1243    0.933577240    1.413480401    0.262909442
  400 SOL   HW1     1244    0.869227588    1.367475629    0.318515837
  400 SOL   HW2     1245    0.888192058    1.502046585    0.246104494
  401 SOL   OW      1246    1.142983913    0.238574639    2.263739586
  401 SOL   HW1     1247    1.122060895    0.165382504    2.329670668
  401 SOL   HW2     1248    1.233985424    0.235798597    2.230866909
  402 SOL   OW      1249    2.855330229    2.644620180    0.367172539
  402 SOL   HW1     1250    2.826356888    2.611386538    0.449331880
  402 SOL   HW2     1251    2.794921875    2.717094660    0.342806965
  403 SOL   OW      1252    2.353375912    0.408084691    2.017196894
  403 SOL   HW1     1253    2.403382778    0.322702497    2.010490656
  403 SOL   HW2     1254    2.322731495    0.424875289    1.925888181
  404 SOL   OW      1255    2.932696819    2.098668575    2.147093058
  404 SOL   HW1     1256    2.987448692    2.040627480    2.089302063
  404 SOL   HW2     1257    2.847537518    2.050359011    2.145102978
  405 SOL   OW      1258    2.002322197    0.504038036    0.670726538
  405 SOL   HW1     1259    1.936801434    0.539870024    0.612163305
  405 SOL   HW2     1260    1.989182234    0.565984368    0.750691175
  406 SOL   OW      1261    0.590500116    1.103607655    1.209825754
  406 SOL   HW1     1262    0.633611500    1.190007210    1.195453167
  406 SOL   HW2     1263    0.652527153    1.063878894    1.268727541
  407 SOL   OW      1264    1.395732522    1.262598872    0.276895940
  407 SOL   HW1     1265    1.380573034    1.329194188    0.206968814
  407 SOL   HW2     1266    1.458709598    1.305521131    0.335312724
  408 SOL   OW      1267    2.772839308    1.174817443    1.251441121
  408 SOL   HW1     1268    2.739548206    1.152845860    1.337975502
  408 SOL   HW2     1269    2.688493490    1.163892150    1.196767330
  409 SOL   OW      1270    0.056522764    2.927435875    1.316018820
  409 SOL   HW1     1271    0.153592527    2.902592421    1.293665886
  409 SOL   HW2     1272    0.040113654    2.862565517    1.387018919
  410 SOL   OW      1273    0.093562022    2.841682911    2.396772385
  410 SOL   HW1     1274    0.050317299    2.791073322    2.469553947
  410 SOL   HW2     1275    0.133907616    2.769573927    2.348546028
  411 SOL   OW      1276    1.957281113    1.717196465    1.644709945
  411 SOL   HW1     1277    1.927803040    1.663953543    1.724132657
  411 SOL   HW2     1278    2.052788258    1.705854058    1.647530437
  412 SOL   OW      1279    0.728425980    2.980575323    2.945200443
  412 SOL   HW1     1280    0.773137391    3.060824156    2.946005344
  412 SOL   HW2     1281    0.714991629    2.966420174    2.850277424
  413 SOL   OW      1282    1.131491661    2.391731977    0.819353580
  413 SOL   HW1     1283    1.207841277    2.426908493    0.864310563
  413 SOL   HW2     1284    1.090822339    2.476104259    0.801968098
  414 SOL   OW      1285    0.476325065    1.023334265    1.978355169
  414 SOL   HW1     1286    0.443351120    0.966158986    1.907805681
  414 SOL   HW2     1287    0.465936303    0.961820781    2.053049803
  415 SOL   OW      1288    2.277593851    2.655656815    0.639933467
  415 SOL   HW1     1289    2.300715685    2.621504068    0.725065053
  415 SOL   HW2     1290    2.233443260    2.738129139    0.664372981
  416 SOL   OW      1291    1.797842145    2.386804104    1.456811309
  416 SOL   HW1     1292    1.809369326    2.392626524    1.359899521
  416 SOL   HW2     1293    1.716650009    2.327919960    1.470224977
  417 SOL   OW      1294    2.349494696    0.797143698    1.725501180
  417 SOL   HW1     1295    2.264001131    0.836638153    1.686903834
  417 SOL   HW2     1296    2.320936203    0.777065575    1.818428636
  418 SOL   OW      1297    2.821986914    0.279719621    0.596177399
  418 SOL   HW1     1298    2.841065884    0.353101730    0.665778816
  418 SOL   HW2     1299    2.882034302    0.289072841    0.526007652
  419 SOL   OW      1300    1.985084176    1.339567184    1.829953909
  419 SOL   HW1     1301    2.069508553    1.298512936    1.842725873
  419 SOL   HW2     1302    2.008173943    1.424180984    1.883498907
  420 SOL   OW      1303    2.874958754    1.656080961    0.429322958
  420 SOL   HW1     1304    2.966074944    1.637069464    0.450704396
  420 SOL   HW2     1305    2.876954079    1.633728027    0.333399951
  421 SOL   OW      1306    2.556614161    2.172066689    0.983501077
  421 SOL   HW1     1307    2.602191448    2.233320951    0.926004350
  421 SOL   HW2     1308    2.466036558    2.196408510    0.971219659
  422 SOL   OW      1309    2.133990288    0.299240589    0.548559725
  422 SOL   HW1     1310    2.063845158    0.264363289    0.489072233
  422 SOL   HW2     1311    2.077961206    0.359039843    0.606291592
  423 SOL   OW      1312    1.765077114    1.971763611    2.462212563
  423 SOL   HW1     1313    1.709419250    1.953049302    2.543802023
  423 SOL   HW2     1314    1.823887587    2.046825886    2.487816572
  424 SOL   OW      1315    0.124066584    0.611755252    0.234767765
  424 SOL   HW1     1316    0.052765414    0.651361167    0.292687595
  424 SOL   HW2     1317    0.084172755    0.641388714    0.149452254
  425 SOL   OW      1318    1.506171823    1.302578568    1.874711871
  425 SOL   HW1     1319    1.581855893    1.253887534    1.862660289
  425 SOL   HW2     1320    1.457866549    1.255812645    1.946563959
  426 SOL   OW      1321    2.550155640    0.638824284    2.042592764
  426 SOL   HW1     1322    2.480765104    0.709074080    2.011739969
  426 SOL   HW2     1323    2.488531351    0.568812311    2.079014301
  427 SOL   OW      1324    2.662112236    1.263557792    0.113012247
  427 SOL   HW1     1325    2.589545012    1.235581756    0.170571744
  427 SOL   HW2     1326    2.742772102    1.233371735    0.151817173
  428 SOL   OW      1327    1.246350169    1.538228035    1.811112642
  428 SOL   HW1     1328    1.180952907    1.470102310    1.776289463
  428 SOL   HW2     1329    1.333045006    1.501882911    1.784783959
  429 SOL   OW      1330    2.422636747    1.402811885    2.447355270
  429 SOL   HW1     1331    2.458723307    1.443777442    2.531462431
  429 SOL   HW2     1332    2.333480120    1.377919078    2.474443436
  430 SOL   OW      1333    0.562841952    0.660339832    0.359510124
  430 SOL   HW1     1334    0.520245969    0.575866878    0.376612365
  430 SOL   HW2     1335    0.624137938    0.646691978    0.284620553
  431 SOL   OW      1336    2.037370443    2.170390844    0.818897307
  431 SOL   HW1     1337    1.975541711    2.144387007    0.892105341
  431 SOL   HW2     1338    2.091161966    2.087906361    0.822672188
  432 SOL   OW      1339    1.704780936    0.185356513    1.118551850
  432 SOL   HW1     1340    1.630084276    0.142202049    1.070214391
  432 SOL   HW2     1341    1.695756078    0.283380955    1.115890861
  433 SOL   OW      1342    0.370081902    1.792835712    1.349617124
  433 SOL   HW1     1343    0.379476070    1.717589974    1.288347721
  433 SOL   HW2     1344    0.466366142    1.827060699    1.355459690
  434 SOL   OW      1345    2.950293064    0.373790085    0.344668388
  434 SOL   HW1     1346    2.985669136    0.286162347    0.341727912
  434 SOL   HW2     1347    3.009095669    0.422141254    0.280927330
  435 SOL   OW      1348    2.718909025    0.009814626    0.003599720
  435 SOL   HW1     1349    2.638400555    0.015995018    0.047877483
  435 SOL   HW2     1350    2.735429525    0.098701514   -0.027867556
  436 SOL   OW      1351    1.527995348    1.671295047    1.604862928
  436 SOL   HW1     1352    1.525141716    1.582055211    1.573573112
  436 SOL   HW2     1353    1.576581478    1.649902582    1.684484601
  437 SOL   OW      1354    1.220361352    0.424831480    0.521248400
  437 SOL   HW1     1355    1.159868479    0.472977579    0.577351987
  437 SOL   HW2     1356    1.191430330    0.463246584    0.431972355
  438 SOL   OW      1357    0.998304307    2.655193806    1.344363928
  438 SOL   HW1     1358    0.960190833    2.629170418    1.257427931
  438 SOL   HW2     1359    0.937030196    2.616532803    1.406722307
  439 SOL   OW      1360    2.305243969    0.179948136    1.481580973
  439 SOL   HW1     1361    2.317427635    0.275277972    1.472823262
  439 SOL   HW2     1362    2.229537487    0.158423290    1.427555799
  440 SOL   OW      1363    2.744772434    2.907809973    0.370980173
  440 SOL   HW1     1364    2.763613939    2.925264597    0.462981939
  440 SOL   HW2     1365    2.648223400    2.925019503    0.359644711
  441 SOL   OW      1366    1.332365274    1.597799063    2.635023355
  441 SOL   HW1     1367    1.280128837    1.597124815    2.548333883
  441 SOL   HW2     1368    1.273712873    1.658049107    2.686293602
  442 SOL   OW      1369    1.505024195    0.049092717    1.000273943
  442 SOL   HW1     1370    1.470973134    0.053845417    0.903780282
  442 SOL   HW2     1371    1.571833611   -0.016575098    0.984525859
  443 SOL   OW      1372    0.554008067    0.863904238    0.876162350
  443 SOL   HW1     1373    0.645517290    0.863033712    0.909749925
  443 SOL   HW2     1374    0.564935386    0.793958783    0.805447519
  444 SOL   OW      1375    1.340046406    1.596797943    0.921535134
  444 SOL   HW1     1376    1.272821426    1.532429218    0.952069938
  444 SOL   HW2     1377    1.429402113    1.566504359    0.954234064
  445 SOL   OW      1378    0.123020045    2.679718494    2.055441856
  445 SOL   HW1     1379    0.207514092    2.707145452    2.014250278
  445 SOL   HW2     1380    0.150906831    2.632115364    2.135724068
  446 SOL   OW      1381    0.328047901    1.881301641    0.357971936
  446 SOL   HW1     1382    0.354173303    1.919673920    0.271232516
  446 SOL   HW2     1383    0.394156337    1.927279234    0.415672541
  447 SOL   OW      1384    0.911780179    0.814860463    1.187402844
  447 SOL   HW1     1385    0.986924052    0.762388170    1.160463333
  447 SOL   HW2     1386    0.878433585    0.769441903    1.263332844
  448 SOL   OW      1387    0.329418749    2.026577234    2.061504126
  448 SOL   HW1     1388    0.338739723    2.045328140    2.156554937
  448 SOL   HW2     1389    0.342601746    1.929502487    2.059977770
  449 SOL   OW      1390    2.373567581    1.406876445    0.913276851
  449 SOL   HW1     1391    2.341560364    1.500925541    0.908982933
  449 SOL   HW2     1392    2.431751490    1.406801224    0.990414739
  450 SOL   OW      1393    0.829917312    1.588818431    1.155561209
  450 SOL   HW1     1394    0.907961130    1.633244276    1.110511184
  450 SOL   HW2     1395    0.743503571    1.604209661    1.105990887
  451 SOL   OW      1396    1.750115275    1.560611010    0.763522267
  451 SOL   HW1     1397    1.836799622    1.585429192    0.735576451
  451 SOL   HW2     1398    1.708994985    1.545149684    0.673661113
  452 SOL   OW      1399    2.820188284    2.359002590    1.153720617
  452 SOL   HW1     1400    2.785959005    2.444233656    1.191158175
  452 SOL   HW2     1401    2.752528191    2.336886644    1.075695515
  453 SOL   OW      1402    2.130281210    0.923192382    1.219971657
  453 SOL   HW1     1403    2.038728714    0.955931723    1.226697206
  453 SOL   HW2     1404    2.186317205    0.983829558    1.275160909
  454 SOL   OW      1405    2.078809023    1.350207806    2.710742712
  454 SOL   HW1     1406    2.083748817    1.250491977    2.692970037
  454 SOL   HW2     1407    2.133608341    1.362907767    2.786875486
  455 SOL   OW      1408    2.626731157    0.176814586    2.418336391
  455 SOL   HW1     1409    2.684773684    0.142673627    2.342158079
  455 SOL   HW2     1410    2.603258133    0.092797153    2.455549002
  456 SOL   OW      1411    1.432345748    0.480221868    0.680613279
  456 SOL   HW1     1412    1.368358374    0.462601215    0.615832686
  456 SOL   HW2     1413    1.446051478    0.575332105    0.657790065
  457 SOL   OW      1414    0.608286560    1.472007990    2.861386299
  457 SOL   HW1     1415    0.696125984    1.506536365    2.844902754
  457 SOL   HW2     1416    0.588134050    1.489399314    2.954814911
  458 SOL   OW      1417    1.942768097    0.584179759    0.221544296
  458 SOL   HW1     1418    2.038170576    0.560534418    0.216340199
  458 SOL   HW2     1419    1.900542259    0.520457268    0.276208669
  459 SOL   OW      1420    0.298877388    0.648006499    0.465106428
  459 SOL   HW1     1421    0.263719767    0.590214849    0.394660264
  459 SOL   HW2     1422    0.340135574    0.717586279    0.413506001
  460 SOL   OW      1423    1.822329521    0.313667715    1.609411597
  460 SOL   HW1     1424    1.820058465    0.239635095    1.544955969
  460 SOL   HW2     1425    1.741722465    0.298709691    1.656006336
  461 SOL   OW      1426    1.210123658    0.704947531    2.965218782
  461 SOL   HW1     1427    1.173947096    0.752917349    2.897535801
  461 SOL   HW2     1428    1.290804625    0.672748506    2.915535688
  462 SOL   OW      1429    1.432846785    1.422297239    2.807501793
  462 SOL   HW1     1430    1.506097674    1.475451708    2.827769518
  462 SOL   HW2     1431    1.408398032    1.466731787    2.720025539
  463 SOL   OW      1432    2.213930368    1.621338010    1.611692667
  463 SOL   HW1     1433    2.279301405    1.692818999    1.601075768
  463 SOL   HW2     1434    2.247969866    1.577198029    1.690761805
  464 SOL   OW      1435    0.504537880    1.560438752    0.126783967
  464 SOL   HW1     1436    0.485375106    1.590799809    0.216372177
  464 SOL   HW2     1437    0.430733353    1.601619482    0.076285318
  465 SOL   OW      1438    1.790208220    0.724114239    1.143518925
  465 SOL   HW1     1439    1.815156341    0.799502313    1.197887897
  465 SOL   HW2     1440    1.857602715    0.723959565    1.071248055
  466 SOL   OW      1441    0.565610945    0.673356473    0.682597935
  466 SOL   HW1     1442    0.488833755    0.616903663    0.660215974
  466 SOL   HW2     1443    0.625950634    0.659867108    0.608914435
  467 SOL   OW      1444    0.368139535    0.743350863    0.052588440
  467 SOL   HW1     1445    0.277339816    0.745827734    0.028430913
  467 SOL   HW2     1446    0.362620384    0.648315549    0.068044968
  468 SOL   OW      1447    2.692883492    1.535715222    1.406894207
  468 SOL   HW1     1448    2.795438051    1.525135875    1.405192971
  468 SOL   HW2     1449    2.688648224    1.618294120    1.363073587
  469 SOL   OW      1450    0.986381531    1.763419271    0.985199094
  469 SOL   HW1     1451    1.073380351    1.806325555    0.988970816
  469 SOL   HW2     1452    0.929679096    1.839421272    0.978102684
  470 SOL   OW      1453    0.331760824    1.247201085    0.922270358
  470 SOL   HW1     1454    0.340312093    1.174158573    0.984664500
  470 SOL   HW2     1455    0.398439109    1.222887635    0.856317818
  471 SOL   OW      1456    0.037409324    2.847666979    0.898399591
  471 SOL   HW1     1457    0.071062490    2.776778221    0.956374526
  471 SOL   HW2     1458    0.046307959    2.922226667    0.956497967
  472 SOL   OW      1459    2.022532940    0.577878058    1.610376954
  472 SOL   HW1     1460    1.980668306    0.662001491    1.583879352
  472 SOL   HW2     1461    2.038151503    0.534897149    1.525359750
  473 SOL   OW      1462    2.005449533    1.583194256    0.671952546
  473 SOL   HW1     1463    1.997790694    1.517969847    0.599839449
  473 SOL   HW2     1464    2.051100969    1.650458455    0.630274296
  474 SOL   OW      1465    0.634869695    0.293273926    1.264679790
  474 SOL   HW1     1466    0.645923138    0.341458589    1.348642111
  474 SOL   HW2     1467    0.717615426    0.320302248    1.217730761
  475 SOL   OW      1468    1.909301639    1.212289929    0.235152021
  475 SOL   HW1     1469    1.995073438    1.251999617    0.230120510
  475 SOL   HW2     1470    1.923542380    1.148577929    0.311454922
  476 SOL   OW      1471    2.416757822    1.233549714    0.498318851
  476 SOL   HW1     1472    2.450732231    1.163311362    0.559831738
  476 SOL   HW2     1473    2.324666739    1.230064750    0.534182131
  477 SOL   OW      1474    1.232336044    1.786012650    2.968180418
  477 SOL   HW1     1475    1.248645306    1.886122108    2.967340231
  477 SOL   HW2     1476    1.194431901    1.771863461    2.883670330
  478 SOL   OW      1477    2.915861845    0.344380021    2.413466215
  478 SOL   HW1     1478    2.991329670    0.282559454    2.391788721
  478 SOL   HW2     1479    2.861727476    0.290552080    2.473127365
  479 SOL   OW      1480    0.571506023    0.156015262    2.729600191
  479 SOL   HW1     1481    0.484629214    0.177470610    2.684174776
  479 SOL   HW2     1482    0.589288771    0.070324749    2.687656879
  480 SOL   OW      1483    1.048713088    2.027456522    2.522602558
  480 SOL   HW1     1484    1.012720704    2.113068581    2.553466797
  480 SOL   HW2     1485    1.018922687    2.030230045    2.434410572
  481 SOL   OW      1486    1.750284433    2.079730511    0.280696064
  481 SOL   HW1     1487    1.673900962    2.022305489    0.298504740
  481 SOL   HW2     1488    1.704799294    2.166232824    0.293494880
  482 SOL   OW      1489    2.708569050    0.290199637    1.797203660
  482 SOL   HW1     1490    2.678603649    0.268426239    1.704968929
  482 SOL   HW2     1491    2.629240513    0.278651923    1.855000019
  483 SOL   OW      1492    1.370104551    2.231500626    2.222130299
  483 SOL   HW1     1493    1.448779464    2.187432528    2.269467831
  483 SOL   HW2     1494    1.412610173    2.249707937    2.131508350
  484 SOL   OW      1495    0.427030414    0.830588102    2.155585051
  484 SOL   HW1     1496    0.380570114    0.845976830    2.235963821
  484 SOL   HW2     1497    0.438442796    0.731924534    2.167499781
  485 SOL   OW      1498    2.429784060    1.667369843    0.776703656
  485 SOL   HW1     1499    2.424086332    1.693055034    0.868802965
  485 SOL   HW2     1500    2.528102160    1.670792580    0.759305060
  486 SOL   OW      1501    0.347931564    1.749916792    2.022049427
  486 SOL   HW1     1502    0.300513923    1.758414984    1.942205310
  486 SOL   HW2     1503    0.396000028    1.671062827    1.992562532
  487 SOL   OW      1504    2.825036526    1.388526797    1.712203860
  487 SOL   HW1     1505    2.834256649    1.332613349    1.634320617
  487 SOL   HW2     1506    2.901588440    1.444301367    1.722672939
  488 SOL   OW      1507    2.289407730    2.296281576    2.316728592
  488 SOL   HW1     1508    2.253836632    2.283894300    2.224526405
  488 SOL   HW2     1509    2.332202911    2.207270384    2.331203699
  489 SOL   OW      1510    0.616767347    1.683285356    2.510066986
  489 SOL   HW1     1511    0.606637418    1.646889329    2.427953482
  489 SOL   HW2     1512    0.529764235    1.684537530    2.545583725
  490 SOL   OW      1513    0.229753226    1.771123290    1.752495408
  490 SOL   HW1     1514    0.276393056    1.727853656    1.686068058
  490 SOL   HW2     1515    0.221191779    1.856709719    1.714528561
  491 SOL   OW      1516    0.522032797    1.118916512    0.770612597
  491 SOL   HW1     1517    0.538403153    1.019030213    0.776470482
  491 SOL   HW2     1518    0.581094027    1.158645034    0.840301514
  492 SOL   OW      1519    0.004914626    0.871342719    0.427120149
  492 SOL   HW1     1520   -0.023311615    0.802479327    0.493256837
  492 SOL   HW2     1521    0.020984635    0.959506810    0.482006818
  493 SOL   OW      1522    2.667040586    0.656255066    1.134360671
  493 SOL   HW1     1523    2.749364614    0.683188617    1.088117242
  493 SOL   HW2     1524    2.695915937    0.665755570    1.227295399
  494 SOL   OW      1525    0.902238727    0.547259688    1.470397830
  494 SOL   HW1     1526    0.888107657    0.619865894    1.531580567
  494 SOL   HW2     1527    0.940439343    0.482593030    1.531247973
  495 SOL   OW      1528    2.306600332    2.808977604    2.222313643
  495 SOL   HW1     1529    2.277712107    2.726637840    2.177881718
  495 SOL   HW2     1530    2.375040531    2.768485546    2.276776791
  496 SOL   OW      1531    0.083833471    2.315844774    2.700660467
  496 SOL   HW1     1532    0.149188340    2.354526758    2.765578747
  496 SOL   HW2     1533    0.002580507    2.367215395    2.717493057
  497 SOL   OW      1534    1.355722785    0.948643625    2.272159100
  497 SOL   HW1     1535    1.441822886    0.918031514    2.241122961
  497 SOL   HW2     1536    1.393868685    0.964994609    2.354077101
  498 SOL   OW      1537    0.661416411    0.689125001    0.066415288
  498 SOL   HW1     1538    0.729086697    0.758940041    0.063714094
  498 SOL   HW2     1539    0.573680758    0.733385384    0.056543406
  499 SOL   OW      1540    0.957830608    2.895549059    0.955121338
  499 SOL   HW1     1541    0.935437739    2.988144398    0.969374180
  499 SOL   HW2     1542    1.001931071    2.881141424    1.044147134
  500 SOL   OW      1543    2.732063532    1.042300701    2.228575468
  500 SOL   HW1     1544    2.733423233    0.945205688    2.219327450
  500 SOL   HW2     1545    2.651068687    1.054187894    2.284615993
  501 SOL   OW      1546    0.873820722    0.172485203    0.990676522
  501 SOL   HW1     1547    0.933263540    0.168920547    1.067731380
  501 SOL   HW2     1548    0.833418906    0.263996810    0.996236026
  502 SOL   OW      1549    1.363449454    2.747575283    1.545799613
  502 SOL   HW1     1550    1.443075061    2.751047850    1.604408979
  502 SOL   HW2     1551    1.356682777    2.649028063    1.532051325
  503 SOL   OW      1552    0.094009988    0.959233999    1.804936647
  503 SOL   HW1     1553    0.062022716    1.047168851    1.820546269
  503 SOL   HW2     1554    0.065261528    0.913009822    1.883405805
  504 SOL   OW      1555    1.121841073    2.221371174    2.129473925
  504 SOL   HW1     1556    1.209892631    2.205501795    2.173961639
  504 SOL   HW2     1557    1.140143633    2.189766169    2.038853645
  505 SOL   OW      1558    1.911396265    0.187884554    0.754890800
  505 SOL   HW1     1559    1.983657598    0.241174042    0.783789992
  505 SOL   HW2     1560    1.843310595    0.250516444    0.729923844
  506 SOL   OW      1561    0.502120852    1.935768604    2.714342117
  506 SOL   HW1     1562    0.540579319    1.929670691    2.621338606
  506 SOL   HW2     1563    0.404488266    1.932115674    2.694540501
  507 SOL   OW      1564    2.585481644    0.784813404    0.518801332
  507 SOL   HW1     1565    2.620548487    0.691994786    0.521892190
  507 SOL   HW2     1566    2.629088640    0.839796484    0.586589813
  508 SOL   OW      1567    1.577832818    1.268549562    0.477792978
  508 SOL   HW1     1568    1.605204105    1.359687448    0.481194019
  508 SOL   HW2     1569    1.657282710    1.219275951    0.501557350
  509 SOL   OW      1570    2.075420141    0.602358818    2.566232681
  509 SOL   HW1     1571    2.032598257    0.508295953    2.577688694
  509 SOL   HW2     1572    2.144485235    0.613156736    2.633851528
  510 SOL   OW      1573    1.089190125    1.628971815    2.016864777
  510 SOL   HW1     1574    1.136753917    1.596976519    1.940875888
  510 SOL   HW2     1575    1.157211661    1.607226968    2.084132910
  511 SOL   OW      1576    1.763772368    2.547917128    2.700584173
  511 SOL   HW1     1577    1.695513725    2.611463547    2.704819918
  511 SOL   HW2     1578    1.842635155    2.607107878    2.722490549
  512 SOL   OW      1579    2.359607220    2.882378340    1.179117084
  512 SOL   HW1     1580    2.422516108    2.952609539    1.182290554
  512 SOL   HW2     1581    2.310858965    2.909774303    1.100815177
  513 SOL   OW      1582    2.211428881    0.562660098    0.220248133
  513 SOL   HW1     1583    2.291884184    0.593470275    0.169566661
  513 SOL   HW2     1584    2.253508329    0.501949966    0.283690870
  514 SOL   OW      1585    2.727288485    0.782079518    2.186602592
  514 SOL   HW1     1586    2.783118010    0.704211712    2.217556477
  514 SOL   HW2     1587    2.654342413    0.736630738    2.138409853
  515 SOL   OW      1588    2.726853848    2.898578644    1.826439977
  515 SOL   HW1     1589    2.632107973    2.923958778    1.835922718
  515 SOL   HW2     1590    2.750501156    2.842589617    1.900645375
  516 SOL   OW      1591    1.844047904    1.697530985    0.429111302
  516 SOL   HW1     1592    1.929712057    1.742464423    0.419876873
  516 SOL   HW2     1593    1.808732986    1.696722388    0.339694947
  517 SOL   OW      1594    1.444933534    1.336822033    1.583404183
  517 SOL   HW1     1595    1.478684425    1.347158790    1.675334573
  517 SOL   HW2     1596    1.453513384    1.237535954    1.579038143
  518 SOL   OW      1597    2.324551105    0.990127742    1.422656298
  518 SOL   HW1     1598    2.376264095    0.905517399    1.403296113
  518 SOL   HW2     1599    2.252631664    0.959299207    1.485850930
  519 SOL   OW      1600    2.192805052    1.133995175    0.614869535
  519 SOL   HW1     1601    2.231824160    1.056831360    0.657450020
  519 SOL   HW2     1602    2.166899443    1.179416537    0.689521551
  520 SOL   OW      1603    1.947170019    1.071072936    2.756940126
  520 SOL   HW1     1604    1.963442683    0.991600335    2.696331739
  520 SOL   HW2     1605    1.988560557    1.034919500    2.837052345
  521 SOL   OW      1606    1.051141024    1.754928231    1.484545469
  521 SOL   HW1     1607    1.086031079    1.765427947    1.573174477
  521 SOL   HW2     1608    1.126242995    1.778152943    1.419574261
  522 SOL   OW      1609    1.918362617    2.713721991    0.161015779
  522 SOL   HW1     1610    1.965545654    2.688792944    0.241924793
  522 SOL   HW2     1611    1.884723425    2.630936384    0.131307915
  523 SOL   OW      1612    2.242147446    2.338211298    0.089637496
  523 SOL   HW1     1613    2.240914345    2.430284977    0.128765553
  523 SOL   HW2     1614    2.223628044    2.284229517    0.170616582
  524 SOL   OW      1615    0.421772242    0.446431339    0.704129696
  524 SOL   HW1     1616    0.459675521    0.440910429    0.799057543
  524 SOL   HW2     1617    0.474077672    0.367597520    0.665687740
  525 SOL   OW      1618    2.734014511    0.653648376    1.395921826
  525 SOL   HW1     1619    2.687813044    0.718228161    1.466310382
  525 SOL   HW2     1620    2.828020573    0.674935758    1.415962934
  526 SOL   OW      1621    1.181653500    1.559739351    1.299442530
  526 SOL   HW1     1622    1.278583288    1.554426193    1.306609154
  526 SOL   HW2     1623    1.158011436    1.489470840    1.363897920
  527 SOL   OW      1624    1.662091851    1.874956489    2.697272778
  527 SOL   HW1     1625    1.651930928    1.792149663    2.748193026
  527 SOL   HW2     1626    1.743853688    1.903300047    2.746941090
  528 SOL   OW      1627    2.661138773    1.559543371    1.911262035
  528 SOL   HW1     1628    2.644530535    1.466126323    1.930308819
  528 SOL   HW2     1629    2.712999105    1.581186533    1.981361151
  529 SOL   OW      1630    1.408720255    0.198459566    2.170352459
  529 SOL   HW1     1631    1.444615841    0.291516155    2.157601595
  529 SOL   HW2     1632    1.427562594    0.147161424    2.090361834
  530 SOL   OW      1633    2.099772215    2.419050694    0.730699778
  530 SOL   HW1     1634    2.075203180    2.325878620    0.752125680
  530 SOL   HW2     1635    2.168653488    2.436133146    0.800291777
  531 SOL   OW      1636    0.303683162    1.996340990    0.770874083
  531 SOL   HW1     1637    0.369705319    2.039391279    0.824435830
  531 SOL   HW2     1638    0.234443203    1.981626749    0.832606614
  532 SOL   OW      1639    2.435044289    0.777163386    1.300240159
  532 SOL   HW1     1640    2.401521921    0.777055323    1.210993052
  532 SOL   HW2     1641    2.529896498    0.773955882    1.281923890
  533 SOL   OW      1642    2.944735050    1.535468936    1.382721901
  533 SOL   HW1     1643    2.986512184    1.623716235    1.402393222
  533 SOL   HW2     1644    3.027601957    1.484009743    1.366780996
  534 SOL   OW      1645    0.789538264    0.278205425    0.310753375
  534 SOL   HW1     1646    0.850282669    0.310816437    0.238188386
  534 SOL   HW2     1647    0.774136364    0.188270211    0.286899716
  535 SOL   OW      1648    2.059794903    0.234626561    2.828925610
  535 SOL   HW1     1649    2.105554104    0.151039571    2.815584898
  535 SOL   HW2     1650    2.018620729    0.210755870    2.917080402
  536 SOL   OW      1651    2.569295883    2.642088175    0.953386724
  536 SOL   HW1     1652    2.556735039    2.683356524    1.042522311
  536 SOL   HW2     1653    2.634895325    2.709081650    0.910906196
  537 SOL   OW      1654    0.890405536    2.495262623    1.102375984
  537 SOL   HW1     1655    0.973025262    2.466174364    1.063229561
  537 SOL   HW2     1656    0.827333391    2.459736109    1.036678910
  538 SOL   OW      1657    2.067215681    1.711288571    1.177817464
  538 SOL   HW1     1658    2.128432035    1.630877614    1.190870881
  538 SOL   HW2     1659    2.051859856    1.733989358    1.272813082
  539 SOL   OW      1660    1.465286732    1.682236791    0.103802264
  539 SOL   HW1     1661    1.464276552    1.741649866    0.181209326
  539 SOL   HW2     1662    1.384799957    1.699520350    0.051292203
  540 SOL   OW      1663    1.866551995    0.193092331    0.033314109
  540 SOL   HW1     1664    1.935759306    0.193529531    0.098547235
  540 SOL   HW2     1665    1.831765771    0.105011210    0.052686311
  541 SOL   OW      1666    1.946448326    2.959218740    0.510961175
  541 SOL   HW1     1667    1.971829057    2.898147106    0.582784891
  541 SOL   HW2     1668    1.852610946    2.970763206    0.528913915
  542 SOL   OW      1669    0.760757983    0.022206610    0.241035715
  542 SOL   HW1     1670    0.685420871   -0.040424585    0.246547714
  542 SOL   HW2     1671    0.826314032   -0.032412052    0.287144512
  543 SOL   OW      1672    1.847149491    2.964560509    0.151466966
  543 SOL   HW1     1673    1.895378828    2.876007318    0.147859752
  543 SOL   HW2     1674    1.761984944    2.934708595    0.183143824
  544 SOL   OW      1675    0.726506233    1.218589425    0.366254061
  544 SOL   HW1     1676    0.757779121    1.131923079    0.392473012
  544 SOL   HW2     1677    0.687202513    1.196317911    0.283750176
  545 SOL   OW      1678    1.366021395    1.233784080    2.114211559
  545 SOL   HW1     1679    1.275139332    1.246648312    2.086446047
  545 SOL   HW2     1680    1.361397028    1.132960558    2.126464128
  546 SOL   OW      1681    2.610725403    1.894721985    0.987362981
  546 SOL   HW1     1682    2.694071293    1.882390857    0.945233107
  546 SOL   HW2     1683    2.602000237    1.991484404    0.989260912
  547 SOL   OW      1684    1.770987749    1.325485110    2.254243374
  547 SOL   HW1     1685    1.678196788    1.317479730    2.274451733
  547 SOL   HW2     1686    1.772076488    1.306078315    2.162647724
  548 SOL   OW      1687    1.614637494    0.825440824    1.789076328
  548 SOL   HW1     1688    1.610096812    0.921113491    1.781655073
  548 SOL   HW2     1689    1.594144583    0.791421533    1.695127964
  549 SOL   OW      1690    0.366875172    0.878592253    2.439891100
  549 SOL   HW1     1691    0.272097588    0.857523024    2.460937023
  549 SOL   HW2     1692    0.388610542    0.956321776    2.487494946
  550 SOL   OW      1693    2.966464520    1.369001746    2.075361013
  550 SOL   HW1     1694    2.926072121    1.462268114    2.072114468
  550 SOL   HW2     1695    3.058411121    1.382598639    2.098634958
  551 SOL   OW      1696    2.078945875    1.197755456    1.365089417
  551 SOL   HW1     1697    2.053834200    1.287768722    1.403219581
  551 SOL   HW2     1698    2.168597460    1.189505816    1.393754482
  552 SOL   OW      1699    2.176592827    2.307970047    2.061716795
  552 SOL   HW1     1700    2.104272842    2.242930651    2.076083660
  552 SOL   HW2     1701    2.176902294    2.319878340    1.965054631
  553 SOL   OW      1702    2.217677593    0.006064177    2.867725849
  553 SOL   HW1     1703    2.176563263   -0.068199396    2.915610790
  553 SOL   HW2     1704    2.243680716   -0.044803858    2.792561293
  554 SOL   OW      1705    0.233898923    2.964077234    0.144092798
  554 SOL   HW1     1706    0.201587290    2.887598038    0.093824543
  554 SOL   HW2     1707    0.216004163    3.029788494    0.078690350
  555 SOL   OW      1708    2.738689661    0.951320946    0.671001494
  555 SOL   HW1     1709    2.820233822    0.997579694    0.637563169
  555 SOL   HW2     1710    2.779824972    0.906077266    0.748515785
  556 SOL   OW      1711    1.299028039    0.667095900    2.515879393
  556 SOL   HW1     1712    1.234373331    0.609183252    2.477551460
  556 SOL   HW2     1713    1.370729446    0.644285202    2.458977461
  557 SOL   OW      1714    0.958831072    1.112471461    2.345437288
  557 SOL   HW1     1715    0.879438996    1.094979644    2.397403479
  557 SOL   HW2     1716    1.001862168    1.173041701    2.408965111
  558 SOL   OW      1717    2.797667265    0.970468462    1.958228707
  558 SOL   HW1     1718    2.831641912    1.051774144    1.917156100
  558 SOL   HW2     1719    2.778295755    1.019036770    2.045595646
  559 SOL   OW      1720    2.399874926    0.868450820    0.353841960
  559 SOL   HW1     1721    2.484096289    0.865856111    0.409421086
  559 SOL   HW2     1722    2.347927332    0.831949711    0.422863275
  560 SOL   OW      1723    1.667630792    0.265097231    1.834954739
  560 SOL   HW1     1724    1.581756949    0.226464793    1.862372637
  560 SOL   HW2     1725    1.726044774    0.190546229    1.839229703
  561 SOL   OW      1726    2.530682087    1.359439731    1.527840614
  561 SOL   HW1     1727    2.592440367    1.411483169    1.466765165
  561 SOL   HW2     1728    2.463521004    1.320073366    1.461607695
  562 SOL   OW      1729    0.732113719    2.283006907    1.971583605
  562 SOL   HW1     1730    0.734339356    2.243978024    2.066708326
  562 SOL   HW2     1731    0.816467345    2.244955063    1.941567659
  563 SOL   OW      1732    2.679108858    1.748944044    2.508735895
  563 SOL   HW1     1733    2.699887753    1.840931654    2.497243881
  563 SOL   HW2     1734    2.734430790    1.738443375    2.597733021
  564 SOL   OW      1735    2.370981932    0.238523230    0.243319675
  564 SOL   HW1     1736    2.353774071    0.305180520    0.310970098
  564 SOL   HW2     1737    2.360296488    0.300958753    0.168541268
  565 SOL   OW      1738    0.323461115    1.147277832    1.748493314
  565 SOL   HW1     1739    0.233487457    1.112280846    1.748408437
  565 SOL   HW2     1740    0.306529701    1.248553634    1.740202546
  566 SOL   OW      1741    2.112029552    2.226247072    2.891991377
  566 SOL   HW1     1742    2.018724918    2.222236633    2.920435905
  566 SOL   HW2     1743    2.151916265    2.266580343    2.973961353
  567 SOL   OW      1744    2.277815104    0.683418572    2.386814833
  567 SOL   HW1     1745    2.267901659    0.595081747    2.346782207
  567 SOL   HW2     1746    2.190389395    0.677015543    2.431384802
  568 SOL   OW      1747    2.913917303    1.808727622    0.647743821
  568 SOL   HW1     1748    3.011511564    1.810207963    0.619374812
  568 SOL   HW2     1749    2.881753206    1.752776265    0.570364416
  569 SOL   OW      1750    0.190269351    2.348416567    2.212416649
  569 SOL   HW1     1751    0.214760706    2.257263660    2.216837406
  569 SOL   HW2     1752    0.196722806    2.362596512    2.115740299
  570 SOL   OW      1753    0.006810403    1.271345735    1.176733732
  570 SOL   HW1     1754    0.051972669    1.182934880    1.175511599
  570 SOL   HW2     1755   -0.082543373    1.246819735    1.215173721
  571 SOL   OW      1756    2.419631720    0.825224161    0.095049821
  571 SOL   HW1     1757    2.498427868    0.882771194    0.080037378
  571 SOL   HW2     1758    2.415756464    0.814046741    0.193952531
  572 SOL   OW      1759    0.031784531    0.558401287    1.517830968
  572 SOL   HW1     1760   -0.003020048    0.563852429    1.611430287
  572 SOL   HW2     1761    0.019369364    0.464579284    1.498526335
  573 SOL   OW      1762    2.898015738    0.495850325    1.769889832
  573 SOL   HW1     1763    2.820153952    0.439541787    1.789257526
  573 SOL   HW2     1764    2.847460270    0.580477834    1.790060043
  574 SOL   OW      1765    0.704963148    1.943801403    2.505171061
  574 SOL   HW1     1766    0.737841368    1.955455780    2.414068937
  574 SOL   HW2     1767    0.680015802    1.844779372    2.499596119
  575 SOL   OW      1768    1.565656900    1.574078560    1.897233129
  575 SOL   HW1     1769    1.537308455    1.478333473    1.892645478
  575 SOL   HW2     1770    1.538282871    1.599430680    1.987889528
  576 SOL   OW      1771    0.056802209    0.959300220    1.529578567
  576 SOL   HW1     1772    0.039422303    1.056233287    1.519361734
  576 SOL   HW2     1773    0.046708804    0.954161704    1.624141812
  577 SOL   OW      1774    2.135624170    0.185712978    2.020434856
  577 SOL   HW1     1775    2.051620245    0.222369149    2.056275845
  577 SOL   HW2     1776    2.168412447    0.260276884    1.972039223
  578 SOL   OW      1777    1.727942705    2.268689632    2.333221436
  578 SOL   HW1     1778    1.686449885    2.326897860    2.270981789
  578 SOL   HW2     1779    1.659452915    2.208992720    2.359259367
  579 SOL   OW      1780    0.694152534    2.979944706    1.577070951
  579 SOL   HW1     1781    0.702777684    3.026865005    1.659084082
  579 SOL   HW2     1782    0.691851020    2.887180805    1.609124899
  580 SOL   OW      1783    2.250934601    1.306532860    1.861889362
  580 SOL   HW1     1784    2.306805134    1.371189237    1.820684671
  580 SOL   HW2     1785    2.253923178    1.341292381    1.949791551
  581 SOL   OW      1786    2.298800707    2.229385614    0.970896065
  581 SOL   HW1     1787    2.273936272    2.143686295    0.937115014
  581 SOL   HW2     1788    2.267887115    2.214950800    1.065723538
  582 SOL   OW      1789    2.876111507    0.237751156    2.734191179
  582 SOL   HW1     1790    2.874079466    0.337683916    2.725843430
  582 SOL   HW2     1791    2.795323372    0.222882643    2.795753002
  583 SOL   OW      1792    1.792211652    2.407166481    1.745042205
  583 SOL   HW1     1793    1.713986039    2.465257645    1.751976848
  583 SOL   HW2     1794    1.845742464    2.453238964    1.682209253
  584 SOL   OW      1795    0.011788544    2.690760851    2.601667166
  584 SOL   HW1     1796   -0.030234814    2.607276440    2.621833801
  584 SOL   HW2     1797    0.103926331    2.670975924    2.624363184
  585 SOL   OW      1798    1.398863792    2.796571970    0.122483835
  585 SOL   HW1     1799    1.351667047    2.732912302    0.185156554
  585 SOL   HW2     1800    1.323624849    2.825625181    0.072587416
  586 SOL   OW      1801    2.263581514    0.991264522    2.144407749
  586 SOL   HW1     1802    2.257671356    1.090302706    2.142630816
  586 SOL   HW2     1803    2.311969757    0.982439399    2.229753971
  587 SOL   OW      1804    2.239777565    2.592524529    0.211990997
  587 SOL   HW1     1805    2.180269241    2.600776911    0.290744990
  587 SOL   HW2     1806    2.327031851    2.640741587    0.238202006
  588 SOL   OW      1807    0.418802649    1.210173845    0.535022438
  588 SOL   HW1     1808    0.390291393    1.118665934    0.511065006
  588 SOL   HW2     1809    0.467689067    1.189464450    0.623040080
  589 SOL   OW      1810    2.523081303    1.503439546    1.176610112
  589 SOL   HW1     1811    2.583261967    1.520697951    1.251515031
  589 SOL   HW2     1812    2.482942104    1.590311885    1.157906651
  590 SOL   OW      1813    2.249795675    2.122264862    1.498493791
  590 SOL   HW1     1814    2.165305614    2.098571062    1.533931971
  590 SOL   HW2     1815    2.261707544    2.214176178    1.536263704
  591 SOL   OW      1816    1.090804577    1.796765924    2.718754292
  591 SOL   HW1     1817    1.092286587    1.882595539    2.656420231
  591 SOL   HW2     1818    1.000673890    1.766846776    2.694455624
  592 SOL   OW      1819    2.165422440    1.980966926    1.065128922
  592 SOL   HW1     1820    2.151386261    2.004502535    1.161414504
  592 SOL   HW2     1821    2.099263668    1.907444000    1.050170183
  593 SOL   OW      1822    1.847964764    1.932116508    0.025887875
  593 SOL   HW1     1823    1.795633674    2.002652645    0.061780266
  593 SOL   HW2     1824    1.918870568    1.980519652   -0.019431114
  594 SOL   OW      1825    2.272670746    2.349116802    1.799054027
  594 SOL   HW1     1826    2.301543713    2.432685614    1.846573710
  594 SOL   HW2     1827    2.332083225    2.351553202    1.725080013
  595 SOL   OW      1828    2.981006861    1.074233770    0.598675609
  595 SOL   HW1     1829    2.992665768    1.092416525    0.699806988
  595 SOL   HW2     1830    3.029301882    1.148722172    0.561053634
  596 SOL   OW      1831    1.431243896    0.057855107    2.387567997
  596 SOL   HW1     1832    1.427448273    0.118080661    2.312432051
  596 SOL   HW2     1833    1.507648349    0.008481680    2.343271494
  597 SOL   OW      1834    1.372585535    2.124294043    0.443999112
  597 SOL   HW1     1835    1.379615068    2.214687824    0.465739936
  597 SOL   HW2     1836    1.280841827    2.112729311    0.417690516
  598 SOL   OW      1837    1.243282318    2.795983315    0.607082963
  598 SOL   HW1     1838    1.157384634    2.800588369    0.558576286
  598 SOL   HW2     1839    1.237732410    2.886747360    0.649925947
  599 SOL   OW      1840    0.644441187    0.355017275    1.522395730
  599 SOL   HW1     1841    0.572280407    0.302583575    1.561211348
  599 SOL   HW2     1842    0.713133514    0.322852910    1.584987879
  600 SOL   OW      1843    0.409248918    0.410073519    0.329031497
  600 SOL   HW1     1844    0.375852764    0.431850404    0.242062777
  600 SOL   HW2     1845    0.339702308    0.367981344    0.383948863
  601 SOL   OW      1846    2.867686987    0.516999364    2.725152731
  601 SOL   HW1     1847    2.943466425    0.559963226    2.685973406
  601 SOL   HW2     1848    2.784190893    0.552168131    2.686956882
  602 SOL   OW      1849    1.719213367    0.669889748    2.713345528
  602 SOL   HW1     1850    1.702908635    0.576287866    2.730670929
  602 SOL   HW2     1851    1.639032364    0.714946508    2.738168001
  603 SOL   OW      1852    1.706261039    2.771845818    0.568011701
  603 SOL   HW1     1853    1.786059737    2.753176212    0.616747260
  603 SOL   HW2     1854    1.722660065    2.691547155    0.498988032
  604 SOL   OW      1855    2.512284994    1.830433846    0.037674740
  604 SOL   HW1     1856    2.530302525    1.856989861    0.128517866
  604 SOL   HW2     1857    2.491962194    1.732923865    0.037965618
  605 SOL   OW      1858    2.863357544    1.827561975    0.916234493
  605 SOL   HW1     1859    2.851700544    1.737040281    0.943366349
  605 SOL   HW2     1860    2.883528948    1.810669899    0.819113016
  606 SOL   OW      1861    0.336146981    0.127387494    2.604844570
  606 SOL   HW1     1862    0.270953357    0.153894231    2.543409109
  606 SOL   HW2     1863    0.349459976    0.031087015    2.582964659
  607 SOL   OW      1864    1.210145354    0.412243545    2.745099783
  607 SOL   HW1     1865    1.262914300    0.367703795    2.814363241
  607 SOL   HW2     1866    1.269894004    0.414604068    2.665317297
  608 SOL   OW      1867    2.792469978    2.330285549    1.981594324
  608 SOL   HW1     1868    2.738997698    2.405877829    1.964049459
  608 SOL   HW2     1869    2.745597839    2.294934273    2.054575682
  609 SOL   OW      1870    0.845422029    1.691586614    2.658587456
  609 SOL   HW1     1871    0.760560811    1.683423162    2.610442400
  609 SOL   HW2     1872    0.902616739    1.623044133    2.610611916
  610 SOL   OW      1873    2.399126291    0.497384489    0.692935467
  610 SOL   HW1     1874    2.479834557    0.489634156    0.750693083
  610 SOL   HW2     1875    2.343907595    0.536675096    0.760465860
  611 SOL   OW      1876    1.675073624    1.101643205    1.729455352
  611 SOL   HW1     1877    1.752391100    1.151195049    1.700493813
  611 SOL   HW2     1878    1.619180560    1.126457691    1.656736970
  612 SOL   OW      1879    1.016811371    2.712494373    2.245770454
  612 SOL   HW1     1880    1.057590604    2.776462793    2.298387289
  612 SOL   HW2     1881    1.082862020    2.700699091    2.176350594
  613 SOL   OW      1882    0.806589186    1.600999594    2.015213966
  613 SOL   HW1     1883    0.898899436    1.606712222    2.036680937
  613 SOL   HW2     1884    0.826523721    1.613791227    1.920483828
  614 SOL   OW      1885    1.717230797    2.046609640    1.603141069
  614 SOL   HW1     1886    1.668768048    1.984414577    1.549723029
  614 SOL   HW2     1887    1.681864023    2.126355886    1.561159730
  615 SOL   OW      1888    1.841860890    1.410521150    1.114363074
  615 SOL   HW1     1889    1.768985391    1.347859025    1.135556459
  615 SOL   HW2     1890    1.801780701    1.486688614    1.157948613
  616 SOL   OW      1891    1.376029730    0.907554269    1.320833087
  616 SOL   HW1     1892    1.436534047    0.841629624    1.282109261
  616 SOL   HW2     1893    1.303914547    0.914805710    1.255321622
  617 SOL   OW      1894    2.586613417    2.497460604    0.280412465
  617 SOL   HW1     1895    2.552320242    2.581066608    0.255664557
  617 SOL   HW2     1896    2.530994177    2.480580568    0.363289744
  618 SOL   OW      1897    0.792535603    0.554407537    1.239516139
  618 SOL   HW1     1898    0.717004240    0.606083632    1.264831305
  618 SOL   HW2     1899    0.830451190    0.531855822    1.327600837
  619 SOL   OW      1900    0.906269431    0.395847321    0.104365729
  619 SOL   HW1     1901    0.814026296    0.421769291    0.086585760
  619 SOL   HW2     1902    0.946205318    0.423127383    0.022371531
  620 SOL   OW      1903    0.909001887    2.032871485    2.921585321
  620 SOL   HW1     1904    0.861088991    2.050124645    2.835227489
  620 SOL   HW2     1905    0.891820192    1.933338761    2.929786682
  621 SOL   OW      1906    0.218421027    2.020657063    1.643400550
  621 SOL   HW1     1907    0.188757449    2.097143650    1.684020519
  621 SOL   HW2     1908    0.288135499    2.047776222    1.578517795
  622 SOL   OW      1909    1.081628442    0.901850998    2.759710073
  622 SOL   HW1     1910    1.122386098    0.916450441    2.669830799
  622 SOL   HW2     1911    1.046961546    0.991713881    2.779414177
  623 SOL   OW      1912    0.496779263    2.411422014    2.591819286
  623 SOL   HW1     1913    0.505723536    2.359378338    2.671826601
  623 SOL   HW2     1914    0.514969528    2.500550985    2.629483461
  624 SOL   OW      1915    0.386470616    0.220633224    1.106327057
  624 SOL   HW1     1916    0.367604434    0.127683386    1.128739119
  624 SOL   HW2     1917    0.446105689    0.247879013    1.178796291
  625 SOL   OW      1918    1.955690503    2.838837147    1.419474840
  625 SOL   HW1     1919    1.881434917    2.888144493    1.461571813
  625 SOL   HW2     1920    1.927925467    2.745694160    1.430592537
  626 SOL   OW      1921    2.596145153    1.669016719    0.324751943
  626 SOL   HW1     1922    2.674956083    1.646336079    0.374169916
  626 SOL   HW2     1923    2.533687592    1.603710890    0.354190588
  627 SOL   OW      1924    0.398600161    2.348114491    0.069915392
  627 SOL   HW1     1925    0.338630080    2.343687057    0.147919968
  627 SOL   HW2     1926    0.486114323    2.328450441    0.118913695
  628 SOL   OW      1927    0.345802248    1.421679139    2.367515564
  628 SOL   HW1     1928    0.417501688    1.376832843    2.326163292
  628 SOL   HW2     1929    0.322476983    1.371712089    2.445845842
  629 SOL   OW      1930    0.004496075    2.722034454    1.524589777
  629 SOL   HW1     1931    0.004491587    2.679984093    1.609954715
  629 SOL   HW2     1932   -0.083118677    2.759713888    1.524872661
  630 SOL   OW      1933    0.408816904    0.790724039    1.574335694
  630 SOL   HW1     1934    0.332975924    0.781830192    1.515670657
  630 SOL   HW2     1935    0.354140371    0.760286331    1.653622031
  631 SOL   OW      1936    1.144591451    1.447923183    1.043974519
  631 SOL   HW1     1937    1.123705268    1.508349299    1.115887403
  631 SOL   HW2     1938    1.165692687    1.373214602    1.098041296
  632 SOL   OW      1939    0.919760644    2.467339277    0.553309977
  632 SOL   HW1     1940    0.906823277    2.506372929    0.641052961
  632 SOL   HW2     1941    0.832784534    2.459453583    0.503703475
  633 SOL   OW      1942    2.928637028    1.226336956    2.313786745
  633 SOL   HW1     1943    2.848105669    1.174790144    2.272517443
  633 SOL   HW2     1944    2.947564363    1.288885713    2.241592407
  634 SOL   OW      1945    0.297192037    1.208059907    0.209701523
  634 SOL   HW1     1946    0.370861888    1.149886847    0.196702898
  634 SOL   HW2     1947    0.247176126    1.194644094    0.127131179
  635 SOL   OW      1948    0.585122228    0.475310206    2.814807653
  635 SOL   HW1     1949    0.616632283    0.541903913    2.879016161
  635 SOL   HW2     1950    0.593996108    0.391102344    2.863215446
  636 SOL   OW      1951    2.273770332    1.240079045    2.213029385
  636 SOL   HW1     1952    2.236015558    1.328009605    2.205346584
  636 SOL   HW2     1953    2.300156593    1.244529009    2.305067062
  637 SOL   OW      1954    0.222509608    1.426388502    1.369848967
  637 SOL   HW1     1955    0.266619474    1.487061858    1.304539561
  637 SOL   HW2     1956    0.263985664    1.337711930    1.365620613
  638 SOL   OW      1957    1.075526357    2.030186176    0.123147033
  638 SOL   HW1     1958    1.147308469    2.058926105    0.060886506
  638 SOL   HW2     1959    1.012133360    2.011961937    0.056546330
  639 SOL   OW      1960    2.705929518    0.277309895    1.522862077
  639 SOL   HW1     1961    2.636297941    0.258398235    1.451877475
  639 SOL   HW2     1962    2.688402653    0.365473956    1.540889144
  640 SOL   OW      1963    0.235294670    1.262582660    2.575473309
  640 SOL   HW1     1964    0.139032722    1.248657703    2.555134773
  640 SOL   HW2     1965    0.238586843    1.302018046    2.663593531
  641 SOL   OW      1966    0.777187943    0.430175751    0.996953905
  641 SOL   HW1     1967    0.765110195    0.488490343    1.074575543
  641 SOL   HW2     1968    0.846939981    0.473307371    0.943336725
  642 SOL   OW      1969    1.677000165    1.420143127    2.597248077
  642 SOL   HW1     1970    1.696019292    1.335984945    2.549378872
  642 SOL   HW2     1971    1.723391771    1.395300508    2.681806087
  643 SOL   OW      1972    1.149436355    2.062494755    1.364266038
  643 SOL   HW1     1973    1.224600196    2.099353313    1.321040988
  643 SOL   HW2     1974    1.155140877    1.975957990    1.323267579
  644 SOL   OW      1975    2.758383512    1.961177230    1.640605092
  644 SOL   HW1     1976    2.679395914    2.012516022    1.650279284
  644 SOL   HW2     1977    2.730550289    1.868009210    1.667742372
  645 SOL   OW      1978    1.190478921    2.876172066    2.383173704
  645 SOL   HW1     1979    1.168314815    2.922911167    2.463536024
  645 SOL   HW2     1980    1.269069552    2.927451849    2.357328892
  646 SOL   OW      1981    2.438865662    0.231099784    2.770215988
  646 SOL   HW1     1982    2.424129248    0.265833527    2.677648067
  646 SOL   HW2     1983    2.441127777    0.139075741    2.741992235
  647 SOL   OW      1984    1.593735456    1.655563593    2.483905554
  647 SOL   HW1     1985    1.582301855    1.563322067    2.508941174
  647 SOL   HW2     1986    1.519777417    1.682076454    2.537319899
  648 SOL   OW      1987    1.876161337    2.672734976    2.286610365
  648 SOL   HW1     1988    1.888685346    2.633547783    2.197632790
  648 SOL   HW2     1989    1.862664342    2.593026638    2.339854479
  649 SOL   OW      1990    1.983716488    2.126498699    2.093832254
  649 SOL   HW1     1991    1.918647766    2.103841066    2.151854992
  649 SOL   HW2     1992    1.930972695    2.151519537    2.022832870
  650 SOL   OW      1993    0.903286338    0.848358512    0.054109417
  650 SOL   HW1     1994    0.994477451    0.835959733    0.078251414
  650 SOL   HW2     1995    0.899027824    0.930390716    0.104435593
  651 SOL   OW      1996    0.090489052    1.016953945    2.231525183
  651 SOL   HW1     1997    0.067807615    0.963762939    2.308594942
  651 SOL   HW2     1998    0.032104772    1.089870453    2.235346079
  652 SOL   OW      1999    0.716624796    2.778764725    0.500658751
  652 SOL   HW1     2000    0.791814327    2.802114964    0.554643393
  652 SOL   HW2     2001    0.643133759    2.812472820    0.556757271
  653 SOL   OW      2002    1.147240996    2.407023191    1.127860904
  653 SOL   HW1     2003    1.136814237    2.424641609    1.223851681
  653 SOL   HW2     2004    1.230460048    2.451799631    1.111420274
  654 SOL   OW      2005    1.650066376    2.437729836    2.149733067
  654 SOL   HW1     2006    1.586972237    2.434318542    2.074333191
  654 SOL   HW2     2007    1.638935685    2.526040316    2.189624786
  655 SOL   OW      2008    2.101939678    0.178496331    1.310254931
  655 SOL   HW1     2009    2.009736538    0.161970541    1.340261579
  655 SOL   HW2     2010    2.103915930    0.141240135    1.221004725
  656 SOL   OW      2011    0.873750329    1.203584552    2.059370756
  656 SOL   HW1     2012    0.793614328    1.215622306    2.003394365
  656 SOL   HW2     2013    0.826416552    1.183247209    2.141722918
  657 SOL   OW      2014    2.448671103    2.952026844    1.781785607
  657 SOL   HW1     2015    2.390237570    2.876944780    1.793959737
  657 SOL   HW2     2016    2.451422215    2.951515198    1.681408763
  658 SOL   OW      2017    1.341325998    0.016301826    2.780188084
  658 SOL   HW1     2018    1.389714360    0.077290066    2.838864088
  658 SOL   HW2     2019    1.246644258    0.024891667    2.807926416
  659 SOL   OW      2020    0.268072098    0.273433745    2.055445194
  659 SOL   HW1     2021    0.238922700    0.184264362    2.050355911
  659 SOL   HW2     2022    0.239092916    0.304761618    1.966289043
  660 SOL   OW      2023    1.791403651    2.942542315    1.045551181
  660 SOL   HW1     2024    1.783036351    2.867726088    1.106558681
  660 SOL   HW2     2025    1.786693096    3.019602060    1.108965039
  661 SOL   OW      2026    0.321618557    0.803016961    1.842996716
  661 SOL   HW1     2027    0.277778327    0.743963182    1.902308822
  661 SOL   HW2     2028    0.257407725    0.850410879    1.796235919
  662 SOL   OW      2029    2.703004837    2.015041113    2.465985298
  662 SOL   HW1     2030    2.640097857    2.090988398    2.455837727
  662 SOL   HW2     2031    2.768520355    2.041802645    2.396456242
  663 SOL   OW      2032    0.444679320    2.068056107    0.497154295
  663 SOL   HW1     2033    0.413744986    2.073936701    0.591043591
  663 SOL   HW2     2034    0.493353277    2.150321722    0.481309414
  664 SOL   OW      2035    2.760267019    2.624422312    2.167556047
  664 SOL   HW1     2036    2.794118643    2.714588881    2.148748875
  664 SOL   HW2     2037    2.740565538    2.598864555    2.075363159
  665 SOL   OW      2038    2.677946329    1.135575771    1.500772119
  665 SOL   HW1     2039    2.642764091    1.068824291    1.563179016
  665 SOL   HW2     2040    2.645147800    1.225670338    1.522726178
  666 SOL   OW      2041    1.956206322    0.789170563    0.879700303
  666 SOL   HW1     2042    1.918461919    0.806630969    0.796091020
  666 SOL   HW2     2043    2.049548149    0.824416816    0.860112071
  667 SOL   OW      2044    0.095256403    0.843295991    2.991694927
  667 SOL   HW1     2045    0.016701799    0.873674572    3.041905403
  667 SOL   HW2     2046    0.065487504    0.753353000    2.965085506
  668 SOL   OW      2047    2.572345257    1.273760796    2.065683126
  668 SOL   HW1     2048    2.504986286    1.217186570    2.096115828
  668 SOL   HW2     2049    2.560063362    1.276831865    1.965700984
  669 SOL   OW      2050    1.420322418    0.670828462    2.768696070
  669 SOL   HW1     2051    1.365545988    0.665387630    2.685366869
  669 SOL   HW2     2052    1.432766080    0.768564820    2.774830818
  670 SOL   OW      2053    1.173776388    1.660930276    2.409046173
  670 SOL   HW1     2054    1.192076802    1.608283520    2.331446171
  670 SOL   HW2     2055    1.094642997    1.612785339    2.448298454
  671 SOL   OW      2056    1.901038766    2.507770777    1.183592916
  671 SOL   HW1     2057    1.896150827    2.427271128    1.125605822
  671 SOL   HW2     2058    1.987785220    2.520422935    1.214964271
  672 SOL   OW      2059    1.492809653    2.345538139    2.704181910
  672 SOL   HW1     2060    1.498772144    2.247254610    2.699129343
  672 SOL   HW2     2061    1.403836966    2.368831635    2.665464401
  673 SOL   OW      2062    0.371994466    0.240611851    1.477658033
  673 SOL   HW1     2063    0.424052209    0.162767574    1.449592710
  673 SOL   HW2     2064    0.282629102    0.207911268    1.465597987
  674 SOL   OW      2065    2.161235809    1.259516597    0.846120834
  674 SOL   HW1     2066    2.243481159    1.316564202    0.841531754
  674 SOL   HW2     2067    2.164944410    1.251303077    0.942443907
  675 SOL   OW      2068    2.930115461    1.988863230    1.429832697
  675 SOL   HW1     2069    2.865648270    1.974801660    1.497619629
  675 SOL   HW2     2070    2.981541395    1.905405521    1.448369980
  676 SOL   OW      2071    0.547464252    0.423980981    1.959489107
  676 SOL   HW1     2072    0.480010748    0.409023225    1.892321229
  676 SOL   HW2     2073    0.504081070    0.484815449    2.021936655
  677 SOL   OW      2074    2.747172594    0.566176176    0.513491035
  677 SOL   HW1     2075    2.756847620    0.473093271    0.504141927
  677 SOL   HW2     2076    2.839721680    0.594791174    0.521510005
  678 SOL   OW      2077    1.938323498    1.614306569    2.914977551
  678 SOL   HW1     2078    1.959410787    1.669180393    2.840560675
  678 SOL   HW2     2079    1.902757406    1.535452247    2.870895147
  679 SOL   OW      2080    1.713634372    1.101929665    0.058198337
  679 SOL   HW1     2081    1.777373552    1.142920613    0.119697556
  679 SOL   HW2     2082    1.668574572    1.180439591    0.024826413
  680 SOL   OW      2083    2.482406139    2.262531996    2.895411491
  680 SOL   HW1     2084    2.437039137    2.279831409    2.810252428
  680 SOL   HW2     2085    2.412442923    2.284555912    2.956417799
  681 SOL   OW      2086    2.664966106    2.429025173    0.606130481
  681 SOL   HW1     2087    2.579291582    2.459985495    0.569772661
  681 SOL   HW2     2088    2.671648979    2.342833757    0.566411972
  682 SOL   OW      2089    0.358424544    2.841580153    1.549174547
  682 SOL   HW1     2090    0.403769076    2.910320282    1.595389485
  682 SOL   HW2     2091    0.267537415    2.843693495    1.588839531
  683 SOL   OW      2092    0.581235766    1.409681678    0.540847778
  683 SOL   HW1     2093    0.496465921    1.357207894    0.529255807
  683 SOL   HW2     2094    0.643580675    1.334557056    0.534652174
  684 SOL   OW      2095    2.288547039    2.511840105    0.894713759
  684 SOL   HW1     2096    2.346192360    2.580145121    0.942173541
  684 SOL   HW2     2097    2.306183815    2.432218552    0.951027036
  685 SOL   OW      2098    0.984285831    1.156669617    2.821821451
  685 SOL   HW1     2099    0.984298408    1.222075105    2.897079468
  685 SOL   HW2     2100    0.889730811    1.144448161    2.824622869
  686 SOL   OW      2101    2.177224398    2.029648066    0.104101107
  686 SOL   HW1     2102    2.257689238    2.051670551    0.155198082
  686 SOL   HW2     2103    2.113595009    2.021670818    0.179126918
  687 SOL   OW      2104    2.277237415    0.139656961    0.712161660
  687 SOL   HW1     2105    2.224752665    0.188099742    0.641172826
  687 SOL   HW2     2106    2.367393494    0.181541204    0.706688821
  688 SOL   OW      2107    1.026227832    0.711116076    0.493109107
  688 SOL   HW1     2108    1.034240246    0.707008243    0.396803290
  688 SOL   HW2     2109    1.077596307    0.789161563    0.506909549
  689 SOL   OW      2110    0.694513857    1.558048368    0.756675541
  689 SOL   HW1     2111    0.654947817    1.505807400    0.683870196
  689 SOL   HW2     2112    0.788555145    1.553070664    0.729360878
  690 SOL   OW      2113    1.316677451    2.063488245    2.930950165
  690 SOL   HW1     2114    1.258197308    2.124307632    2.875942707
  690 SOL   HW2     2115    1.378394723    2.041615486    2.862852097
  691 SOL   OW      2116    0.458353132    0.981406748    0.171226293
  691 SOL   HW1     2117    0.423708379    0.897320628    0.132456034
  691 SOL   HW2     2118    0.420166016    0.966422498    0.258859843
  692 SOL   OW      2119    0.959271014    2.273446798    2.603926897
  692 SOL   HW1     2120    0.880692542    2.232129097    2.652849197
  692 SOL   HW2     2121    0.920250237    2.330315828    2.535799265
  693 SOL   OW      2122    1.722400308    1.907139540    1.979524732
  693 SOL   HW1     2123    1.752590656    1.978240013    1.926121950
  693 SOL   HW2     2124    1.783612847    1.923717737    2.055856943
  694 SOL   OW      2125    2.589689732    0.538096070    2.663605452
  694 SOL   HW1     2126    2.591672897    0.496083796    2.752949238
  694 SOL   HW2     2127    2.521494150    0.484585971    2.615848780
  695 SOL   OW      2128    1.345606685    1.434849143    0.067777984
  695 SOL   HW1     2129    1.369771242    1.458997130   -0.023786783
  695 SOL   HW2     2130    1.339762688    1.522865653    0.110699378
  696 SOL   OW      2131    0.135931969    0.395928085    0.666729629
  696 SOL   HW1     2132    0.099124387    0.387377799    0.756339610
  696 SOL   HW2     2133    0.225965485    0.414412230    0.689503253
  697 SOL   OW      2134    0.122374140    2.934740543    1.705927491
  697 SOL   HW1     2135    0.041961823    2.991074324    1.697103620
  697 SOL   HW2     2136    0.188607991    2.990792513    1.739260793
  698 SOL   OW      2137    1.482077718    2.626205444    0.680325449
  698 SOL   HW1     2138    1.577329993    2.650300026    0.684574127
  698 SOL   HW2     2139    1.454141736    2.711627960    0.642211735
  699 SOL   OW      2140    0.254130185    1.401998758    1.828957438
  699 SOL   HW1     2141    0.207079098    1.470515132    1.778202415
  699 SOL   HW2     2142    0.247622445    1.442867994    1.916318178
  700 SOL   OW      2143    1.165725231    2.252164364    2.812704086
  700 SOL   HW1     2144    1.213570476    2.307808876    2.749343634
  700 SOL   HW2     2145    1.085861206    2.248075724    2.760763168
  701 SOL   OW      2146    0.715161204    1.260720849    0.905847609
  701 SOL   HW1     2147    0.684725046    1.294015646    0.992308319
  701 SOL   HW2     2148    0.808037043    1.266792893    0.915402532
  702 SOL   OW      2149    0.676333606    2.904164314    1.840875506
  702 SOL   HW1     2150    0.706514239    2.836458921    1.777723551
  702 SOL   HW2     2151    0.719932079    2.878266096    1.922048450
  703 SOL   OW      2152    0.399638861    0.035040140    0.506580055
  703 SOL   HW1     2153    0.372264117   -0.039353848    0.562080026
  703 SOL   HW2     2154    0.322067201    0.074161522    0.466794103
  704 SOL   OW      2155    2.835658312    0.007552964    0.644390464
  704 SOL   HW1     2156    2.839293957    0.105727375    0.628114104
  704 SOL   HW2     2157    2.926524639   -0.022025824    0.628259718
  705 SOL   OW      2158    2.962104082    2.527953625    2.960496664
  705 SOL   HW1     2159    2.896692276    2.602896452    2.975922823
  705 SOL   HW2     2160    2.936965704    2.472027063    3.036643505
  706 SOL   OW      2161    2.540753603    2.254954576    2.449419975
  706 SOL   HW1     2162    2.468050957    2.318568707    2.455832720
  706 SOL   HW2     2163    2.608852386    2.307554722    2.409039736
  707 SOL   OW      2164    1.164862990    2.260601282    1.564667583
  707 SOL   HW1     2165    1.149409175    2.194749594    1.496437788
  707 SOL   HW2     2166    1.070658922    2.284758568    1.586854458
  708 SOL   OW      2167    1.721765518    1.388050675    0.133288994
  708 SOL   HW1     2168    1.673591852    1.456690311    0.189456299
  708 SOL   HW2     2169    1.773601055    1.347657323    0.202115715
  709 SOL   OW      2170    1.342098713    2.456968307    1.511685967
  709 SOL   HW1     2171    1.392634511    2.462538958    1.589589477
  709 SOL   HW2     2172    1.284825206    2.386374235    1.546592712
  710 SOL   OW      2173    0.525069118    2.331955671    1.223810792
  710 SOL   HW1     2174    0.435564905    2.326103449    1.182736158
  710 SOL   HW2     2175    0.507716358    2.409743547    1.278415561
  711 SOL   OW      2176    0.599472523    1.618339419    1.023337603
  711 SOL   HW1     2177    0.622543871    1.605636120    0.929517388
  711 SOL   HW2     2178    0.562393904    1.705851555    1.024405956
  712 SOL   OW      2179    0.218041375    1.454983115    2.116098881
  712 SOL   HW1     2180    0.223764822    1.472496390    2.208001137
  712 SOL   HW2     2181    0.245791614    1.363481760    2.112240076
  713 SOL   OW      2182    2.979480505    1.614950657    1.814202428
  713 SOL   HW1     2183    2.963893414    1.601156235    1.911072254
  713 SOL   HW2     2184    3.053774118    1.678130984    1.809854269
  714 SOL   OW      2185    2.505692720    1.729556680    2.309478045
  714 SOL   HW1     2186    2.528174162    1.639779568    2.286833286
  714 SOL   HW2     2187    2.559722662    1.733474374    2.389153481
  715 SOL   OW      2188    0.168102816    0.717673957    1.163139224
  715 SOL   HW1     2189    0.249147609    0.690764189    1.111381888
  715 SOL   HW2     2190    0.200435445    0.721301436    1.257218242
  716 SOL   OW      2191    2.236030579    1.501981258    1.210302114
  716 SOL   HW1     2192    2.329169035    1.481967568    1.228167415
  716 SOL   HW2     2193    2.207030296    1.427375317    1.158226013
  717 SOL   OW      2194    0.871851981    1.015754223    0.723780811
  717 SOL   HW1     2195    0.833524466    1.009871244    0.820506394
  717 SOL   HW2     2196    0.956336617    1.054440022    0.749168098
  718 SOL   OW      2197    2.817940712    2.431202888    2.705146313
  718 SOL   HW1     2198    2.733275414    2.429536581    2.737669230
  718 SOL   HW2     2199    2.807548046    2.434372187    2.607924700
  719 SOL   OW      2200    1.464111328    2.529717922    2.974166632
  719 SOL   HW1     2201    1.444896579    2.565392733    2.882889509
  719 SOL   HW2     2202    1.483983874    2.610733032    3.020166159
  720 SOL   OW      2203    1.091206551    0.517692149    2.396009207
  720 SOL   HW1     2204    1.076036811    0.459001452    2.472117424
  720 SOL   HW2     2205    1.095554113    0.448530257    2.329520226
  721 SOL   OW      2206    1.476319551    0.109833129    0.723378479
  721 SOL   HW1     2207    1.381018400    0.105750494    0.696616113
  721 SOL   HW2     2208    1.519966483    0.063003890    0.647210121
  722 SOL   OW      2209    2.290559292    1.830840588    0.608429372
  722 SOL   HW1     2210    2.340007305    1.772581100    0.669057965
  722 SOL   HW2     2211    2.318171978    1.916026354    0.630497277
  723 SOL   OW      2212    2.003955364    0.949435949    2.314608574
  723 SOL   HW1     2213    2.091281176    0.957615018    2.273265839
  723 SOL   HW2     2214    1.995249510    1.046619415    2.336009026
  724 SOL   OW      2215    0.163166076    1.825070262    0.571951330
  724 SOL   HW1     2216    0.230642304    1.861855745    0.640261829
  724 SOL   HW2     2217    0.211779311    1.817655683    0.491358280
  725 SOL   OW      2218    2.543270111    2.921612740    2.508729696
  725 SOL   HW1     2219    2.591368914    2.854278803    2.557437181
  725 SOL   HW2     2220    2.544203520    2.865794420    2.426976442
  726 SOL   OW      2221    2.997966528    2.338117838    1.336895108
  726 SOL   HW1     2222    3.039494276    2.424765587    1.317036748
  726 SOL   HW2     2223    2.921152115    2.334836721    1.268373489
  727 SOL   OW      2224    0.894081771    0.257566065    2.502376795
  727 SOL   HW1     2225    0.867187023    0.344606400    2.547786951
  727 SOL   HW2     2226    0.830330729    0.262035459    2.425440311
  728 SOL   OW      2227    1.332321286    0.188797176    0.389780104
  728 SOL   HW1     2228    1.358216405    0.233701929    0.475010753
  728 SOL   HW2     2229    1.408779621    0.206634656    0.332548887
  729 SOL   OW      2230    1.439477086    2.394144058    0.493690550
  729 SOL   HW1     2231    1.373389125    2.463277578    0.472051144
  729 SOL   HW2     2232    1.444125533    2.389998674    0.593228340
  730 SOL   OW      2233    2.944632292    1.524703145    0.818197608
  730 SOL   HW1     2234    3.010585308    1.485431075    0.878521562
  730 SOL   HW2     2235    2.987536430    1.511521578    0.734296203
  731 SOL   OW      2236    0.490675211    2.562611341    1.455134392
  731 SOL   HW1     2237    0.407129645    2.510393381    1.458206892
  731 SOL   HW2     2238    0.446354568    2.654194355    1.458452225
  732 SOL   OW      2239    2.292495966    2.885997057    2.648599625
  732 SOL   HW1     2240    2.370517015    2.891628981    2.594624758
  732 SOL   HW2     2241    2.236378908    2.868702888    2.576212883
  733 SOL   OW      2242    0.941464305    2.912146330    0.654570282
  733 SOL   HW1     2243    0.944781840    3.005128622    0.689203978
  733 SOL   HW2     2244    0.941712558    2.872719049    0.746495008
  734 SOL   OW      2245    0.358258098    2.110226154    2.340930700
  734 SOL   HW1     2246    0.384924203    2.016176701    2.355727434
  734 SOL   HW2     2247    0.267672598    2.101741076    2.364901066
  735 SOL   OW      2248    1.576674700    0.413812429    2.100996733
  735 SOL   HW1     2249    1.590527177    0.496804595    2.056091785
  735 SOL   HW2     2250    1.669388056    0.387680143    2.089450359
  736 SOL   OW      2251    2.586891174    0.055466831    0.897784650
  736 SOL   HW1     2252    2.617872715    0.118140057    0.833917201
  736 SOL   HW2     2253    2.620586634   -0.028298616    0.867028415
  737 SOL   OW      2254    0.878342450    0.149305493    1.912042975
  737 SOL   HW1     2255    0.855423152    0.057513341    1.929437160
  737 SOL   HW2     2256    0.867861032    0.186733946    2.002608299
  738 SOL   OW      2257    2.375143766    1.588971615    2.872546434
  738 SOL   HW1     2258    2.316307545    1.633561015    2.934942722
  738 SOL   HW2     2259    2.350045443    1.494688511    2.885280848
  739 SOL   OW      2260    2.046182394    2.601526976    1.736026764
  739 SOL   HW1     2261    2.066981554    2.510242224    1.719760656
  739 SOL   HW2     2262    1.973982811    2.628562689    1.675004482
  740 SOL   OW      2263    1.533652782    0.754826427    1.551681876
  740 SOL   HW1     2264    1.456129789    0.709124267    1.590631127
  740 SOL   HW2     2265    1.502671480    0.816641808    1.479202986
  741 SOL   OW      2266    0.098720677    1.794295311    1.433680177
  741 SOL   HW1     2267    0.192393273    1.791609049    1.407162070
  741 SOL   HW2     2268    0.105845466    1.789234877    1.526522994
  742 SOL   OW      2269    2.070090294    2.744709730    2.479475260
  742 SOL   HW1     2270    2.002621651    2.741287708    2.404489994
  742 SOL   HW2     2271    2.086173773    2.647285461    2.486001968
  743 SOL   OW      2272    0.028754784    1.226281524    1.510575771
  743 SOL   HW1     2273    0.116795696    1.216268539    1.466089249
  743 SOL   HW2     2274   -0.033804417    1.268587112    1.456756592
  744 SOL   OW      2275    0.548430264    1.442725182    1.760305047
  744 SOL   HW1     2276    0.568034053    1.478739619    1.670183778
  744 SOL   HW2     2277    0.448244542    1.431598186    1.759443045
  745 SOL   OW      2278    2.186697245    1.746421099    0.015786270
  745 SOL   HW1     2279    2.094873428    1.723042488    0.024524959
  745 SOL   HW2     2280    2.183518887    1.838225007    0.042436287
  746 SOL   OW      2281    1.209432006    1.043868542    0.244082451
  746 SOL   HW1     2282    1.125134349    1.091586947    0.210805282
  746 SOL   HW2     2283    1.261187434    1.116433978    0.274310112
  747 SOL   OW      2284    0.692011237    1.017496109    2.227832317
  747 SOL   HW1     2285    0.628903508    0.944540203    2.210111618
  747 SOL   HW2     2286    0.667672932    1.047527790    2.317436934
  748 SOL   OW      2287    1.230548382    2.449101448    2.329494238
  748 SOL   HW1     2288    1.297679901    2.386902332    2.299844265
  748 SOL   HW2     2289    1.224818945    2.499327898    2.247851849
  749 SOL   OW      2290    2.913755417    1.655370951    2.070000887
  749 SOL   HW1     2291    2.924305439    1.751512051    2.048420906
  749 SOL   HW2     2292    2.900378942    1.678301096    2.162800074
  750 SOL   OW      2293    1.476305008    2.257754326    0.073243797
  750 SOL   HW1     2294    1.388093710    2.219131947    0.052132592
  750 SOL   HW2     2295    1.464046001    2.349960804    0.034805328
  751 SOL   OW      2296    1.447723150    2.048153639    2.695844650
  751 SOL   HW1     2297    1.523387313    1.990483284    2.701732635
  751 SOL   HW2     2298    1.416694045    2.027374744    2.609518528
  752 SOL   OW      2299    0.221290186    1.609952927    0.245758384
  752 SOL   HW1     2300    0.236708030    1.702986479    0.267884135
  752 SOL   HW2     2301    0.290817082    1.573737264    0.299122155
  753 SOL   OW      2302    1.892054200    0.752765119    0.578767002
  753 SOL   HW1     2303    1.942350745    0.786382735    0.500728071
  753 SOL   HW2     2304    1.801192045    0.771461368    0.554475427
  754 SOL   OW      2305    2.064410925    1.446452022    1.451993585
  754 SOL   HW1     2306    2.103969097    1.491041660    1.376531482
  754 SOL   HW2     2307    2.105747938    1.499482512    1.522472143
  755 SOL   OW      2308    2.910790205    2.405806780    0.203314483
  755 SOL   HW1     2309    2.854435205    2.329160452    0.233357787
  755 SOL   HW2     2310    2.883935452    2.475337505    0.269718409
  756 SOL   OW      2311    0.101994805    0.332231790    0.029520975
  756 SOL   HW1     2312    0.153585032    0.254401147   -0.007392883
  756 SOL   HW2     2313    0.011619478    0.311851144    0.008536777
  757 SOL   OW      2314    1.631007791    2.915025234    1.364376545
  757 SOL   HW1     2315    1.680177808    2.840370178    1.313361049
  757 SOL   HW2     2316    1.658562541    2.889934778    1.455245018
  758 SOL   OW      2317    1.787779212    0.364037007    2.430945635
  758 SOL   HW1     2318    1.841271639    0.375983953    2.510383368
  758 SOL   HW2     2319    1.710236311    0.336355060    2.474830151
  759 SOL   OW      2320    0.070891738    0.059913810    2.047191620
  759 SOL   HW1     2321    0.131405726   -0.010975838    2.048301697
  759 SOL   HW2     2322    0.070360072    0.082878754    2.142503023
  760 SOL   OW      2323    1.100873947    1.337406278    1.726208210
  760 SOL   HW1     2324    1.138278008    1.309189081    1.645411611
  760 SOL   HW2     2325    1.014074564    1.359861016    1.692597985
  761 SOL   OW      2326    1.995075107    0.378740638    1.038456559
  761 SOL   HW1     2327    2.014476538    0.283080399    1.024406314
  761 SOL   HW2     2328    1.902228236    0.387828380    1.082305551
  762 SOL   OW      2329    1.215615749    2.550116301    0.495194972
  762 SOL   HW1     2330    1.117857456    2.544667006    0.501701713
  762 SOL   HW2     2331    1.230258465    2.625726700    0.565675437
  763 SOL   OW      2332    1.954463601    2.749801159    2.731536388
  763 SOL   HW1     2333    1.995270252    2.821916342    2.776640654
  763 SOL   HW2     2334    1.980369091    2.754890442    2.643038034
  764 SOL   OW      2335    1.562557936    1.462845922    0.926535964
  764 SOL   HW1     2336    1.634187937    1.513456941    0.882653713
  764 SOL   HW2     2337    1.530242562    1.413013577    0.851658583
  765 SOL   OW      2338    2.894817829    0.891849816    0.188119844
  765 SOL   HW1     2339    2.852252007    0.975206673    0.214445934
  765 SOL   HW2     2340    2.931421518    0.872308493    0.281368881
  766 SOL   OW      2341    1.103524089    0.114273563    2.565698147
  766 SOL   HW1     2342    1.018429518    0.156631410    2.544305801
  766 SOL   HW2     2343    1.151103020    0.192949384    2.575165510
  767 SOL   OW      2344    1.118837595    0.483320177    0.286403835
  767 SOL   HW1     2345    1.174070477    0.551072240    0.239971042
  767 SOL   HW2     2346    1.051407576    0.458105356    0.217933625
  768 SOL   OW      2347    2.739933491    0.719300926    0.035485808
  768 SOL   HW1     2348    2.813351393    0.656533420    0.025538709
  768 SOL   HW2     2349    2.779604912    0.790730357    0.084490500
  769 SOL   OW      2350    0.026985977    1.887402415    2.002220392
  769 SOL   HW1     2351    0.128444254    1.891728163    1.984187484
  769 SOL   HW2     2352   -0.003794670    1.944978118    1.927996278
  770 SOL   OW      2353    2.742385387    1.462665081    2.869822979
  770 SOL   HW1     2354    2.817540407    1.407867432    2.875139475
  770 SOL   HW2     2355    2.697016478    1.443133116    2.955844402
  771 SOL   OW      2356    2.823770046    2.756037951    0.001342825
  771 SOL   HW1     2357    2.798761845    2.849367619   -0.017609358
  771 SOL   HW2     2358    2.737772942    2.718615294    0.009820938
  772 SOL   OW      2359    0.961502492    1.583169580    0.743338168
  772 SOL   HW1     2360    0.978826642    1.635295033    0.826050162
  772 SOL   HW2     2361    0.973876894    1.649096847    0.680076897
  773 SOL   OW      2362    1.029770255    2.968708992    0.144450486
  773 SOL   HW1     2363    0.952606678    3.022112846    0.144876599
  773 SOL   HW2     2364    1.087082267    3.049381733    0.148584023
  774 SOL   OW      2365    0.449565709    2.130303621    0.945333302
  774 SOL   HW1     2366    0.413301229    2.191375256    1.009299755
  774 SOL   HW2     2367    0.486397862    2.197064400    0.876937628
  775 SOL   OW      2368    2.393499613    1.220346451    1.333005786
  775 SOL   HW1     2369    2.361402750    1.127139091    1.349019885
  775 SOL   HW2     2370    2.430524588    1.206125855    1.243359447
  776 SOL   OW      2371    1.093032718    1.188561082    0.607305050
  776 SOL   HW1     2372    1.013038158    1.233689904    0.642457962
  776 SOL   HW2     2373    1.153971791    1.265322328    0.629686058
  777 SOL   OW      2374    0.621660292    2.780005932    0.246279448
  777 SOL   HW1     2375    0.658667088    2.760295153    0.338857055
  777 SOL   HW2     2376    0.525098801    2.781717062    0.262440979
  778 SOL   OW      2377    0.830199540    2.758479834    2.038831711
  778 SOL   HW1     2378    0.917074084    2.788476944    2.002172947
  778 SOL   HW2     2379    0.867951274    2.735659122    2.127334595
  779 SOL   OW      2380    1.768769741    1.147358894    2.542252302
  779 SOL   HW1     2381    1.814562440    1.108075500    2.619118452
  779 SOL   HW2     2382    1.838387132    1.173478723    2.481852531
  780 SOL   OW      2383    1.428278089    1.250874996    0.719810784
  780 SOL   HW1     2384    1.357040167    1.311619878    0.695078969
  780 SOL   HW2     2385    1.480351925    1.256028771    0.637676418
  781 SOL   OW      2386    0.846123338    0.564345539    2.044972897
  781 SOL   HW1     2387    0.834952712    0.558733582    1.947471380
  781 SOL   HW2     2388    0.853941500    0.470213771    2.071041346
  782 SOL   OW      2389    2.818687201    2.974028826    1.173417449
  782 SOL   HW1     2390    2.895156384    3.012818813    1.122848988
  782 SOL   HW2     2391    2.864463806    2.940682173    1.251099229
  783 SOL   OW      2392    2.574697256    1.305865169    1.808275461
  783 SOL   HW1     2393    2.660652637    1.343209028    1.788926959
  783 SOL   HW2     2394    2.528983831    1.330952525    1.728276491
  784 SOL   OW      2395    2.130655527    1.418368340    2.452410936
  784 SOL   HW1     2396    2.159733772    1.511996150    2.445814371
  784 SOL   HW2     2397    2.133887291    1.400346279    2.548620939
  785 SOL   OW      2398    0.551500618    2.342664957    0.480490655
  785 SOL   HW1     2399    0.595537186    2.352109909    0.392376512
  785 SOL   HW2     2400    0.465107232    2.395079374    0.467373699
  786 SOL   OW      2401    0.233646750    2.486105204    2.525657177
  786 SOL   HW1     2402    0.317559153    2.510097265    2.562319756
  786 SOL   HW2     2403    0.208798319    2.400262117    2.561614037
  787 SOL   OW      2404    1.368509531    2.665628433    2.738544941
  787 SOL   HW1     2405    1.298877597    2.728416681    2.733917952
  787 SOL   HW2     2406    1.322988033    2.590271711    2.692103386
  788 SOL   OW      2407    1.194163918    0.907995820    2.521704435
  788 SOL   HW1     2408    1.255695224    0.826003015    2.518634558
  788 SOL   HW2     2409    1.198439598    0.944801748    2.436298132
  789 SOL   OW      2410    0.184231400    0.461680382    2.265075922
  789 SOL   HW1     2411    0.177758247    0.385895967    2.202070475
  789 SOL   HW2     2412    0.097793132    0.463713348    2.302296162
  790 SOL   OW      2413    2.152538776    2.976030827    0.318861872
  790 SOL   HW1     2414    2.135869741    2.887156248    0.273192644
  790 SOL   HW2     2415    2.084865332    2.970706940    0.383779943
  791 SOL   OW      2416    1.742032647    1.625615239    1.232546806
  791 SOL   HW1     2417    1.770671844    1.649497509    1.146502376
  791 SOL   HW2     2418    1.821729660    1.659471989    1.285592318
  792 SOL   OW      2419    0.691304386    1.089056134    2.837866306
  792 SOL   HW1     2420    0.624716580    1.136853814    2.785248280
  792 SOL   HW2     2421    0.695734203    1.005355239    2.789166451
  793 SOL   OW      2422    1.790168524    2.975877047    1.586728096
  793 SOL   HW1     2423    1.774423480    2.989404440    1.682861090
  793 SOL   HW2     2424    1.886100888    2.990721703    1.599952102
  794 SOL   OW      2425    2.169115067    2.443226099    2.492384911
  794 SOL   HW1     2426    2.203962803    2.381252766    2.422680140
  794 SOL   HW2     2427    2.068558693    2.437427282    2.475429296
  795 SOL   OW      2428    1.553710341    2.895084620    2.632980585
  795 SOL   HW1     2429    1.512459278    2.913269043    2.548702002
  795 SOL   HW2     2430    1.477479696    2.926293612    2.698040962
  796 SOL   OW      2431    1.959867358    0.200457722    0.392449230
  796 SOL   HW1     2432    1.971045136    0.104180239    0.418267190
  796 SOL   HW2     2433    2.005859375    0.206239820    0.307285488
  797 SOL   OW      2434    1.963819027    1.868958592    2.739485025
  797 SOL   HW1     2435    1.957902789    1.792307615    2.680278778
  797 SOL   HW2     2436    2.062463999    1.874580503    2.753130674
  798 SOL   OW      2437    1.915821671    0.899845898    1.767376661
  798 SOL   HW1     2438    1.825637937    0.895910442    1.803642154
  798 SOL   HW2     2439    1.892540455    0.866924167    1.677407146
  799 SOL   OW      2440    0.859683812    0.202121332    2.814181328
  799 SOL   HW1     2441    0.889339626    0.293837100    2.797817469
  799 SOL   HW2     2442    0.808583677    0.194481298    2.727400303
  800 SOL   OW      2443    2.443976402    2.496889353    0.488959014
  800 SOL   HW1     2444    2.391386747    2.577952623    0.529007912
  800 SOL   HW2     2445    2.370335817    2.427021742    0.488422960
  801 SOL   OW      2446    0.741448343    0.993850529    1.411892295
  801 SOL   HW1     2447    0.668356478    1.021989822    1.471170664
  801 SOL   HW2     2448    0.735482514    0.896058440    1.402321935
  802 SOL   OW      2449    2.631774902    1.763931990    1.289067626
  802 SOL   HW1     2450    2.583499670    1.831188202    1.341894746
  802 SOL   HW2     2451    2.650185108    1.821081161    1.212177157
  803 SOL   OW      2452    0.775155425    0.473345578    2.600672007
  803 SOL   HW1     2453    0.720360458    0.487372994    2.675235748
  803 SOL   HW2     2454    0.810182095    0.562875926    2.592054844
  804 SOL   OW      2455    1.775286317    0.176281273    2.244282722
  804 SOL   HW1     2456    1.801199675    0.220955536    2.160333157
  804 SOL   HW2     2457    1.796226263    0.243489742    2.316588402
  805 SOL   OW      2458    0.548703194    1.530395508    1.999771714
  805 SOL   HW1     2459    0.648841500    1.536293149    2.018445969
  805 SOL   HW2     2460    0.549471498    1.502439260    1.906712890
  806 SOL   OW      2461    0.634971976    0.018715456    0.683115721
  806 SOL   HW1     2462    0.703571737    0.086843058    0.672578931
  806 SOL   HW2     2463    0.555971205    0.063164808    0.639922202
  807 SOL   OW      2464    1.527950883    0.285260051    0.253320724
  807 SOL   HW1     2465    1.611367464    0.303151339    0.302136689
  807 SOL   HW2     2466    1.519104481    0.374387950    0.205262080
  808 SOL   OW      2467    0.088818744    2.911698580    0.651400447
  808 SOL   HW1     2468    0.065053530    2.896441460    0.746301591
  808 SOL   HW2     2469    0.171998501    2.863172531    0.642393351
  809 SOL   OW      2470    2.016692162    1.040853262    0.409707636
  809 SOL   HW1     2471    2.034168243    0.954474270    0.370424896
  809 SOL   HW2     2472    2.109987020    1.061298728    0.441557139
  810 SOL   OW      2473    0.499775678    0.402501673    0.956579566
  810 SOL   HW1     2474    0.446303487    0.349236995    1.017962694
  810 SOL   HW2     2475    0.589770973    0.384817123    0.984446287
  811 SOL   OW      2476    1.326996088    0.137744680    1.190156221
  811 SOL   HW1     2477    1.318899035    0.049802028    1.228180766
  811 SOL   HW2     2478    1.395527482    0.118129000    1.125766039
  812 SOL   OW      2479    1.591331244    0.602799177    1.906388283
  812 SOL   HW1     2480    1.680310011    0.563712120    1.885572433
  812 SOL   HW2     2481    1.582429647    0.679783642    1.844638348
  813 SOL   OW      2482    0.052573491    2.350249529    0.997649908
  813 SOL   HW1     2483    0.041889630    2.287397861    0.915844023
  813 SOL   HW2     2484   -0.041269302    2.344535589    1.027543545
  814 SOL   OW      2485    2.239335060    1.150771976    2.507314205
  814 SOL   HW1     2486    2.271320343    1.074134469    2.561700344
  814 SOL   HW2     2487    2.151101112    1.125455618    2.472583294
  815 SOL   OW      2488    2.169613600    1.028237939    1.875998855
  815 SOL   HW1     2489    2.186500549    1.119456172    1.903762460
  815 SOL   HW2     2490    2.175753593    0.987515390    1.959857464
  816 SOL   OW      2491    2.236665487    2.767388105    1.769009709
  816 SOL   HW1     2492    2.188695908    2.834924459    1.826716661
  816 SOL   HW2     2493    2.160484791    2.706027269    1.739541292
  817 SOL   OW      2494    1.886047840    2.785494089    1.994409084
  817 SOL   HW1     2495    1.926103473    2.728346348    1.925979495
  817 SOL   HW2     2496    1.968596458    2.838266611    2.021920681
  818 SOL   OW      2497    0.522371411    0.217465594    2.151334286
  818 SOL   HW1     2498    0.558338642    0.274373710    2.075662136
  818 SOL   HW2     2499    0.425008744    0.222774968    2.131670713
  819 SOL   OW      2500    0.955802202    1.809118390    0.585550129
  819 SOL   HW1     2501    1.004131317    1.874502778    0.529105186
  819 SOL   HW2     2502    0.869066060    1.812596083    0.547838628
  820 SOL   OW      2503    0.774923384    2.525274277    1.484256148
  820 SOL   HW1     2504    0.784375370    2.438550472    1.442769170
  820 SOL   HW2     2505    0.685156465    2.544306278    1.456971169
  821 SOL   OW      2506    2.543071032    2.704080105    2.306020975
  821 SOL   HW1     2507    2.510144711    2.632419586    2.360475540
  821 SOL   HW2     2508    2.628337622    2.668328047    2.273805857
  822 SOL   OW      2509    0.285776943    0.771343768    0.712632000
  822 SOL   HW1     2510    0.257824033    0.737117410    0.625141919
  822 SOL   HW2     2511    0.362422287    0.722575068    0.723458886
  823 SOL   OW      2512    1.867803574    0.980330884    1.289158463
  823 SOL   HW1     2513    1.816867828    1.006038189    1.207893968
  823 SOL   HW2     2514    1.863883495    1.061889768    1.337025166
  824 SOL   OW      2515    0.871629417    1.443953514    1.678041697
  824 SOL   HW1     2516    0.789648890    1.406029820    1.709387302
  824 SOL   HW2     2517    0.846706212    1.486023545    1.590770841
  825 SOL   OW      2518    2.053906202    0.096227221    1.644353509
  825 SOL   HW1     2519    2.136005878    0.122009858    1.595508337
  825 SOL   HW2     2520    2.025381327    0.183084905    1.679046273
  826 SOL   OW      2521    1.531347036    2.611957550    2.514230967
  826 SOL   HW1     2522    1.553637266    2.540830374    2.575827837
  826 SOL   HW2     2523    1.482461572    2.677402496    2.564719439
  827 SOL   OW      2524    0.951916873    2.204583645    0.639749289
  827 SOL   HW1     2525    1.016365170    2.221841812    0.714043140
  827 SOL   HW2     2526    0.938088596    2.292978287    0.597938836
  828 SOL   OW      2527    2.761814833    2.806460619    0.850205302
  828 SOL   HW1     2528    2.793573141    2.853328466    0.768990874
  828 SOL   HW2     2529    2.849892378    2.800610781    0.890575349
  829 SOL   OW      2530    0.119003363    2.570205688    1.334622502
  829 SOL   HW1     2531    0.097811840    2.647857904    1.391933918
  829 SOL   HW2     2532    0.169407219    2.507047892    1.385841131
  830 SOL   OW      2533    0.558320522    2.643413782    2.714768887
  830 SOL   HW1     2534    0.580575824    2.656219959    2.808852434
  830 SOL   HW2     2535    0.619540274    2.704537153    2.687606335
  831 SOL   OW      2536    2.295027733    0.751128018    0.575436950
  831 SOL   HW1     2537    2.325205326    0.673444390    0.632113516
  831 SOL   HW2     2538    2.278062344    0.821868300    0.643453777
  832 SOL   OW      2539    0.905680358    2.644089222    0.252372622
  832 SOL   HW1     2540    0.859579384    2.700433016    0.192343384
  832 SOL   HW2     2541    0.929640710    2.707630157    0.327267885
  833 SOL   OW      2542    2.192042351    1.932864189    1.800648689
  833 SOL   HW1     2543    2.249691248    1.859561920    1.772594452
  833 SOL   HW2     2544    2.191845655    1.918305278    1.897296190
  834 SOL   OW      2545    0.936500847    2.042851210    2.251095295
  834 SOL   HW1     2546    0.856528759    2.095558167    2.242228031
  834 SOL   HW2     2547    1.008235812    2.105838299    2.223146915
  835 SOL   OW      2548    0.962127805    0.156648800    0.738445759
  835 SOL   HW1     2549    0.926672935    0.242464513    0.705501974
  835 SOL   HW2     2550    0.945823014    0.163694412    0.843892217
  836 SOL   OW      2551    2.929923534    2.313935518    2.280183792
  836 SOL   HW1     2552    3.019523382    2.350113153    2.247523785
  836 SOL   HW2     2553    2.915195465    2.247517347    2.214135647
  837 SOL   OW      2554    1.773137212    0.874470234    2.979000330
  837 SOL   HW1     2555    1.716220975    0.948340714    3.013626814
  837 SOL   HW2     2556    1.848642945    0.924080193    2.951208115
  838 SOL   OW      2557    0.603500426    1.637812138    1.530244708
  838 SOL   HW1     2558    0.649479389    1.710520267    1.571043730
  838 SOL   HW2     2559    0.677842677    1.599845290    1.472095013
  839 SOL   OW      2560    0.069677487    1.734505057    2.598753214
  839 SOL   HW1     2561    0.070302770    1.683365941    2.515562534
  839 SOL   HW2     2562    0.006662130    1.679927230    2.650070190
  840 SOL   OW      2563    0.986151993    1.480400920    2.505835056
  840 SOL   HW1     2564    1.035826206    1.403372645    2.541140318
  840 SOL   HW2     2565    0.909486473    1.434751868    2.456231833
  841 SOL   OW      2566    1.513593554    1.069617629    1.489949584
  841 SOL   HW1     2567    1.592752814    1.103771329    1.436875701
  841 SOL   HW2     2568    1.456277370    1.029376030    1.417491794
  842 SOL   OW      2569    2.691215515    1.539925098    0.707333446
  842 SOL   HW1     2570    2.734350920    1.578769565    0.627252579
  842 SOL   HW2     2571    2.777209997    1.528176188    0.763961196
  843 SOL   OW      2572    0.442114264    2.759013653    1.129150748
  843 SOL   HW1     2573    0.431050360    2.667328119    1.098001838
  843 SOL   HW2     2574    0.479247689    2.803813696    1.048488140
  844 SOL   OW      2575    1.894558191    0.502318442    1.855976343
  844 SOL   HW1     2576    1.944410801    0.558454812    1.792686939
  844 SOL   HW2     2577    1.862362266    0.425955892    1.795170784
  845 SOL   OW      2578    2.111138105    2.923238754    2.036957502
  845 SOL   HW1     2579    2.133398533    3.020234346    2.036602736
  845 SOL   HW2     2580    2.174119949    2.883927822    2.106045246
  846 SOL   OW      2581    1.798398733    2.927612305    2.533596039
  846 SOL   HW1     2582    1.788424253    2.869869709    2.456898212
  846 SOL   HW2     2583    1.718757868    2.902083158    2.583368301
  847 SOL   OW      2584    1.154691696    1.734917760    0.226930648
  847 SOL   HW1     2585    1.100852132    1.808337927    0.246884480
  847 SOL   HW2     2586    1.163012981    1.746171832    0.129324988
  848 SOL   OW      2587    1.586348653    2.241251230    1.464350224
  848 SOL   HW1     2588    1.545368433    2.182535172    1.392450094
  848 SOL   HW2     2589    1.509955287    2.296632051    1.488297582
  849 SOL   OW      2590    1.571081638    2.981202602    0.240335107
  849 SOL   HW1     2591    1.541507006    3.060075998    0.199016899
  849 SOL   HW2     2592    1.504354119    2.917132139    0.205190495
  850 SOL   OW      2593    0.746018589    2.465227842    2.946687698
  850 SOL   HW1     2594    0.752401948    2.405621529    3.023426056
  850 SOL   HW2     2595    0.723004341    2.554680347    2.981331348
  851 SOL   OW      2596    1.411971688    1.600795865    0.427043110
  851 SOL   HW1     2597    1.322469831    1.571404576    0.413469851
  851 SOL   HW2     2598    1.399931669    1.697485924    0.440238386
  852 SOL   OW      2599    0.628483772    2.723245621    2.968379498
  852 SOL   HW1     2600    0.617295861    2.722493887    3.064221859
  852 SOL   HW2     2601    0.659865439    2.814250469    2.955833197
  853 SOL   OW      2602    0.334796220    1.403783560    2.799098730
  853 SOL   HW1     2603    0.407731712    1.459232092    2.823505163
  853 SOL   HW2     2604    0.258407235    1.436457276    2.855769873
  854 SOL   OW      2605    0.182655379    0.617890358    2.000180483
  854 SOL   HW1     2606    0.093723990    0.661626458    2.013779402
  854 SOL   HW2     2607    0.231376618    0.637207866    2.084427595
  855 SOL   OW      2608    1.352197528    2.897365808    1.328498721
  855 SOL   HW1     2609    1.442634463    2.891927242    1.318410754
  855 SOL   HW2     2610    1.342471361    2.848390102    1.411578655
  856 SOL   OW      2611    1.683587074    1.886545658    0.605789185
  856 SOL   HW1     2612    1.597391367    1.865158081    0.561218500
  856 SOL   HW2     2613    1.751278281    1.833698630    0.558627486
  857 SOL   OW      2614    2.350179195    0.439285576    0.426935285
  857 SOL   HW1     2615    2.282665253    0.387028009    0.479700714
  857 SOL   HW2     2616    2.401109457    0.487398714    0.497077972
  858 SOL   OW      2617    0.487267703    2.458345890    2.075649261
  858 SOL   HW1     2618    0.503930569    2.406082630    2.158202648
  858 SOL   HW2     2619    0.573328316    2.457432508    2.034215927
  859 SOL   OW      2620    2.335693836    2.108089209    0.638198674
  859 SOL   HW1     2621    2.297763109    2.187364578    0.591039598
  859 SOL   HW2     2622    2.432332277    2.124540806    0.617920458
  860 SOL   OW      2623    0.357823730    2.877614260    2.517226458
  860 SOL   HW1     2624    0.269407362    2.871811867    2.478857279
  860 SOL   HW2     2625    0.336231351    2.825196028    2.591823816
  861 SOL   OW      2626    1.544615149    2.064361811    2.344254971
  861 SOL   HW1     2627    1.485496402    2.000403881    2.381555557
  861 SOL   HW2     2628    1.622841716    2.010655642    2.370898485
  862 SOL   OW      2629    2.554694176    0.065420799    1.167705059
  862 SOL   HW1     2630    2.562085152    0.050609607    1.066608310
  862 SOL   HW2     2631    2.649180174    0.040797960    1.193003535
  863 SOL   OW      2632    0.962530613    1.897711396    2.032486916
  863 SOL   HW1     2633    0.968790770    1.936330557    2.123509169
  863 SOL   HW2     2634    0.998848140    1.799655676    2.045541048
  864 SOL   OW      2635    2.750036716    2.719683647    2.588188887
  864 SOL   HW1     2636    2.746396303    2.636291027    2.538971901
  864 SOL   HW2     2637    2.847484589    2.720372915    2.598045349
  865 CL    CL      2638    1.577522159    2.617067814    1.712377548
END
VELOCITY
    1 ACE   CH3        1    1.114360452   -0.912775755   -0.673796296
    1 ACE   HH31       2   -1.311477661   -0.549175322    0.535123169
    1 ACE   HH32       3   -0.771360338    0.023952980   -2.067870140
    1 ACE   HH33       4    1.006428123   -1.203615069    0.528437734
    1 ACE   C          5    0.426245719    0.173454314   -0.124032967
    1 ACE   O          6    0.085310690   -0.013902370   -0.670384288
    2 ALA   N          7   -0.411924243   -0.527022839   -0.117411122
    2 ALA   HN         8   -3.996265411   -1.236697912    0.748508632
    2 ALA   CA         9    0.594540775   -0.466493338    0.083760411
    2 ALA   HA        10   -1.648945689   -0.106392138   -1.017213106
    2 ALA   CB        11   -0.042036686   -0.224423319    0.217722356
    2 ALA   HB1       12   -0.355770916    0.620449424   -1.187047243
    2 ALA   HB2       13   -2.057544708    1.828534603    1.362451911
    2 ALA   HB3       14   -2.699140787    0.947726965   -0.330578566
    2 ALA   C         15    0.135146677    0.461324483   -0.715087295
    2 ALA   O         16    0.283344597    0.873422086    0.245501071
    3 ARG   N         17    0.235666916    0.327868074    0.085772887
    3 ARG   HN        18    0.646468222   -3.034787893   -4.155393124
    3 ARG   CA        19    0.158796832   -0.525171161    0.660148323
    3 ARG   HA        20   -3.319766760    0.746899784   -0.596251965
    3 ARG   CB        21   -0.585760891   -0.447192758    0.029339397
    3 ARG   HB1       22   -0.260622025   -1.249039292    0.442767411
    3 ARG   HB2       23   -2.466161966   -2.502255917    0.226837888
    3 ARG   CG        24    0.289019376   -0.246988267    0.113506809
    3 ARG   HG1       25   -1.847723842   -3.184679031    0.209559813
    3 ARG   HG2       26    2.436866045   -1.557148576   -0.660572886
    3 ARG   CD        27    0.342283398    0.607725203    0.112961911
    3 ARG   HD1       28    0.385626286   -0.489882886   -0.191324085
    3 ARG   HD2       29   -0.828902781    1.074829936    0.871400118
    3 ARG   NE        30   -0.579415143   -0.262809664    0.379204482
    3 ARG   HE        31   -0.762648761   -2.084005356   -1.477673531
    3 ARG   CZ        32   -0.353572160    0.792354882   -0.113501489
    3 ARG   NH1       33    0.045429140   -0.041815642    0.305739492
    3 ARG   HH11      34   -1.625821233   -0.375534922    0.308404684
    3 ARG   HH12      35    4.458558559   -3.000602961   -1.075538039
    3 ARG   NH2       36    0.081274301    0.635031164   -0.291882843
    3 ARG   HH21      37    0.685342789   -2.408887863    1.959763288
    3 ARG   HH22      38   -1.507580996   -0.381165504   -0.140768826
    3 ARG   C         39    0.231885016    0.322804451    0.223037705
    3 ARG   O         40   -0.046637822    0.836215317   -0.058194570
    4 ASN   N         41    0.073031574   -0.507153690    0.195940554
    4 ASN   HN        42   -1.087345600   -0.637656033   -0.906609833
    4 ASN   CA        43   -0.128223270    0.080101348   -0.193752259
    4 ASN   HA        44    0.142429322   -0.373282671   -0.835466743
    4 ASN   CB        45    0.122323886   -0.483990431   -0.284383625
    4 ASN   HB1       46   -0.458732784    0.029077394    0.668782532
    4 ASN   HB2       47    2.654745579    1.401587129    0.555023789
    4 ASN   CG        48   -0.581548452   -0.224281415   -0.195829257
    4 ASN   OD1       49    0.542998791    0.816932321    0.018155314
    4 ASN   ND2       50   -0.089198589    0.604181767    0.867411911
    4 ASN   HD21      51   -1.378814340    0.564763546   -0.036183637
    4 ASN   HD22      52   -1.875830293    1.004016638   -1.288227558
    4 ASN   C         53   -0.575339735   -0.055643629    0.266324669
    4 ASN   O         54    0.258288085    0.249477193   -0.617898881
    5 CT3   N         55   -0.480477750   -0.650800586    0.919101775
    5 CT3   HN        56    0.762127399   -0.389500409    2.592755318
    5 CT3   CH3       57   -0.275293916    0.093375549    0.023864426
    5 CT3   HH31      58    0.808254540    0.273709416   -0.649989069
    5 CT3   HH32      59   -0.971335232   -1.154480219    0.665662766
    5 CT3   HH33      60   -0.093414061    0.464823961    0.723662972
    6 SOL   OW        61    0.434436083   -0.508318961   -0.434570849
    6 SOL   HW1       62   -1.981338859    2.051820040   -0.748487949
    6 SOL   HW2       63   -0.316490203   -1.191090345   -0.680269659
    7 SOL   OW        64   -0.439063072    0.483125061   -0.298356086
    7 SOL   HW1       65   -1.218108654   -1.356662154   -2.615074158
    7 SOL   HW2       66    1.256594658   -0.925961912    1.033887148
    8 SOL   OW        67   -0.116184197   -0.536376178    0.307318866
    8 SOL   HW1       68   -0.984773278    3.532226324   -2.094580889
    8 SOL   HW2       69    1.391422391    1.477939248    0.224802285
    9 SOL   OW        70    0.125115901    0.320017844    0.192392305
    9 SOL   HW1       71   -0.009292478   -0.973396301    0.818166614
    9 SOL   HW2       72   -0.469448835    3.024970531    0.085942410
   10 SOL   OW        73   -0.430551142   -0.083020069   -0.231990233
   10 SOL   HW1       74    1.347940803    2.716638088   -1.247911334
   10 SOL   HW2       75    1.778330445    1.489316583   -1.578056812
   11 SOL   OW        76    0.186080486   -0.318806887    0.240565136
   11 SOL   HW1       77   -1.902572989   -0.952420831    2.332567930
   11 SOL   HW2       78    0.203494594   -2.624927282    0.735192895
   12 SOL   OW        79    0.286521196   -0.249864325    0.640921474
   12 SOL   HW1       80    0.732637763   -0.099770039    0.083180413
   12 SOL   HW2       81   -0.279917538    1.228224874   -1.307369947
   13 SOL   OW        82   -0.103374310    0.172569856    0.219505355
   13 SOL   HW1       83    2.057483435   -0.156283289   -1.447024465
   13 SOL   HW2       84    0.618693054    0.974648952   -1.923028588
   14 SOL   OW        85    0.409528017    0.225751266   -0.010473376
   14 SOL   HW1       86    1.988028169    0.314112127   -0.042448502
   14 SOL   HW2       87   -2.905055046    1.367272258   -1.502880454
   15 SOL   OW        88    0.126124173   -0.573104858   -0.068217017
   15 SOL   HW1       89   -1.102907538   -2.779612303   -1.789909363
   15 SOL   HW2       90    0.135511041   -0.022793056    1.673464060
   16 SOL   OW        91    0.606996834   -0.112209514    0.253705174
   16 SOL   HW1       92    1.506767154    1.532966137    1.054129362
   16 SOL   HW2       93   -1.265083790   -0.321930528    0.822396338
   17 SOL   OW        94   -0.104816303    0.464688390    0.342833489
   17 SOL   HW1       95    0.051505152   -1.845848083    0.161824048
   17 SOL   HW2       96   -3.007841349   -0.203285098   -1.001167893
   18 SOL   OW        97   -0.555774748   -0.456121802   -0.464080215
   18 SOL   HW1       98   -0.490275234    0.307980686    1.444437146
   18 SOL   HW2       99    1.527506590   -0.274965733   -1.666778207
   19 SOL   OW       100   -0.536762714   -0.157488674    0.299218476
   19 SOL   HW1      101    1.158782482   -2.655199528    1.753610611
   19 SOL   HW2      102   -0.634129405    1.445591927    1.346533060
   20 SOL   OW       103    0.565765023    0.563742340   -0.269040942
   20 SOL   HW1      104   -2.732236862    2.307156563   -1.091789961
   20 SOL   HW2      105   -0.727582037   -1.366475344    0.072662726
   21 SOL   OW       106   -0.438175887    0.314968437    0.262086391
   21 SOL   HW1      107   -1.850034118   -0.508750081    1.569882393
   21 SOL   HW2      108    1.795051455    0.038432192    0.045202278
   22 SOL   OW       109   -0.115795322   -0.223369256   -0.015595646
   22 SOL   HW1      110   -0.125174925    1.806169510   -1.173476100
   22 SOL   HW2      111   -0.398919970   -0.955401480   -0.228977084
   23 SOL   OW       112   -0.220545411    0.157951340    0.326111794
   23 SOL   HW1      113    2.456022501   -1.722512007   -0.199075356
   23 SOL   HW2      114   -1.446374774   -1.392667770    0.712758183
   24 SOL   OW       115   -0.063389048   -0.168980166   -0.396225542
   24 SOL   HW1      116    0.665994585    0.638432562    0.160537928
   24 SOL   HW2      117   -1.050069928    2.235320807   -1.194123745
   25 SOL   OW       118    0.526264548    0.250344634   -0.009750641
   25 SOL   HW1      119    3.042389870   -0.761182904   -1.209369898
   25 SOL   HW2      120    1.218744040   -1.106769562   -0.430764645
   26 SOL   OW       121    0.227251366    0.133330256    0.235824138
   26 SOL   HW1      122    2.230220556   -3.033970356    2.879459858
   26 SOL   HW2      123    1.687117100   -1.444295883    1.005599022
   27 SOL   OW       124   -0.205067784   -0.111261502   -0.448756099
   27 SOL   HW1      125   -1.354017496   -0.829962432    0.335855603
   27 SOL   HW2      126    2.963011265    1.197870493   -2.725017786
   28 SOL   OW       127    0.085826278   -0.173245534   -0.272654623
   28 SOL   HW1      128    1.753964663    0.871644258   -2.593464851
   28 SOL   HW2      129   -1.056287169   -0.731008649    0.074552327
   29 SOL   OW       130    0.138052955    0.208618343   -0.114778556
   29 SOL   HW1      131   -3.438236475   -0.770373821    1.135143399
   29 SOL   HW2      132    1.216188073    0.160686970    1.154071569
   30 SOL   OW       133    0.101255283   -0.238391578    0.050981976
   30 SOL   HW1      134    1.680226326    1.348522305    1.195563674
   30 SOL   HW2      135   -1.355451465    1.979465246    0.595892727
   31 SOL   OW       136    0.140175372    0.341530383   -0.039898083
   31 SOL   HW1      137   -2.315023422    2.488177299   -0.637053251
   31 SOL   HW2      138    0.471562445    1.096325517    1.324359775
   32 SOL   OW       139   -0.043708585    0.301045567    0.001623278
   32 SOL   HW1      140   -1.095574617    1.787072659    0.343180716
   32 SOL   HW2      141   -1.905535817   -1.252277851    0.715798497
   33 SOL   OW       142    0.464618653   -0.150826797   -0.540824473
   33 SOL   HW1      143    0.608599067   -0.180752844   -2.526288986
   33 SOL   HW2      144    1.017483711    1.457831860   -2.776437759
   34 SOL   OW       145   -0.195757851   -0.010369208    0.479405403
   34 SOL   HW1      146   -2.806572437    0.878346980    0.317905009
   34 SOL   HW2      147    1.691291332    0.057266913    0.283128917
   35 SOL   OW       148   -0.026134023    0.383039325    0.688539326
   35 SOL   HW1      149    1.140209198   -2.636231661    1.513372898
   35 SOL   HW2      150   -0.713153422    2.352492809   -1.356441259
   36 SOL   OW       151    0.569124877    0.610542595    0.170881942
   36 SOL   HW1      152   -2.560941219   -0.450840384   -1.194545031
   36 SOL   HW2      153   -2.570673704   -1.648642898   -1.154393196
   37 SOL   OW       154   -0.163519785    0.042244919    0.328422189
   37 SOL   HW1      155    0.182934090   -1.996523023    1.995311737
   37 SOL   HW2      156   -2.652532101    0.013688145    0.389054894
   38 SOL   OW       157    0.290455431   -0.289430618   -0.337893128
   38 SOL   HW1      158    1.023006439   -0.251481146   -1.594790697
   38 SOL   HW2      159    1.219616532    0.571966887   -0.067102790
   39 SOL   OW       160   -0.626226008   -0.154338017    0.421717227
   39 SOL   HW1      161   -0.056935638   -1.366103530   -0.117032290
   39 SOL   HW2      162    1.173947811    0.333872736    3.049045324
   40 SOL   OW       163    1.007436752    0.232675046    0.205962718
   40 SOL   HW1      164    1.104386806   -2.751809120   -2.705576658
   40 SOL   HW2      165    0.366113126    1.469144583   -2.501869917
   41 SOL   OW       166    0.428519130    0.757032216    0.870940804
   41 SOL   HW1      167    3.253890038   -2.808413267    0.392338872
   41 SOL   HW2      168    0.763529003    2.062978268    2.657175303
   42 SOL   OW       169   -0.080257930    0.239980012    0.126608178
   42 SOL   HW1      170   -0.977423906   -2.213604212   -0.894537628
   42 SOL   HW2      171   -0.436278492    1.436406732    1.828864932
   43 SOL   OW       172    0.594250441    0.218156323    0.169920623
   43 SOL   HW1      173    1.631883264    1.366032839    1.696941018
   43 SOL   HW2      174    2.406710625    1.216456294   -0.894527435
   44 SOL   OW       175   -0.283371031   -0.393021047    0.147894740
   44 SOL   HW1      176   -0.234037191    3.009882212    1.867105603
   44 SOL   HW2      177    2.290962219    2.730482340   -1.171713710
   45 SOL   OW       178    0.021273663   -0.231342986    0.027882099
   45 SOL   HW1      179    2.174230576   -0.866873682    0.410005242
   45 SOL   HW2      180   -0.997608364   -0.983437121    1.028175712
   46 SOL   OW       181    0.138518989    0.190166205    0.220593557
   46 SOL   HW1      182   -0.292248636   -1.901007533    1.017638445
   46 SOL   HW2      183    1.516664386    0.596803367    0.597196877
   47 SOL   OW       184   -0.168495193    0.151124686    0.891570151
   47 SOL   HW1      185   -0.366180450   -1.421256185    0.138570637
   47 SOL   HW2      186   -1.243886352   -1.106552243    0.336401343
   48 SOL   OW       187   -0.123524606    0.210100830    0.017530333
   48 SOL   HW1      188   -1.128807545   -0.740424752    0.997090995
   48 SOL   HW2      189   -0.734830379    1.201543212   -0.088948078
   49 SOL   OW       190    0.432505786    0.284808755    0.075462297
   49 SOL   HW1      191    1.598685384    1.242209077    0.388850480
   49 SOL   HW2      192    1.161563754    1.045869708    3.059311390
   50 SOL   OW       193   -0.095416233   -0.277210623   -0.686202228
   50 SOL   HW1      194   -1.569722652   -3.375288963    2.171827316
   50 SOL   HW2      195    2.395599127   -1.514621258   -0.931074381
   51 SOL   OW       196   -0.127505139   -0.165044159    0.809320509
   51 SOL   HW1      197   -0.293705255    0.522095382    1.678230762
   51 SOL   HW2      198    0.125060186   -0.387380749   -1.485740185
   52 SOL   OW       199    0.388598889    0.539103210    0.213588700
   52 SOL   HW1      200    3.809302330    1.282113433    0.224182844
   52 SOL   HW2      201    0.701752961    1.710956931   -1.362012506
   53 SOL   OW       202    0.855747402   -0.707664192    0.350082546
   53 SOL   HW1      203    1.327588677    1.768071055    2.110291958
   53 SOL   HW2      204   -1.815479994   -0.831342101   -1.410276532
   54 SOL   OW       205   -0.067546621    0.498417020    0.304854125
   54 SOL   HW1      206    0.765900791   -2.493802786   -0.643889129
   54 SOL   HW2      207    1.947488546   -0.584549129    1.493885875
   55 SOL   OW       208   -0.435088128   -0.466550976   -0.603140593
   55 SOL   HW1      209   -1.966066003    1.621648669   -2.922526360
   55 SOL   HW2      210    3.909687519    1.645384908    2.636033773
   56 SOL   OW       211    0.310797811   -0.154719204    0.166293040
   56 SOL   HW1      212    0.372954428    0.356665462   -2.575573683
   56 SOL   HW2      213    0.448471725   -1.030005097    0.023755556
   57 SOL   OW       214   -0.095238589    0.457294732   -0.359675974
   57 SOL   HW1      215    1.636149764   -2.880918503    2.705035686
   57 SOL   HW2      216   -0.414643824   -0.426570654    0.234432027
   58 SOL   OW       217   -0.072187245   -0.465110332   -0.450206250
   58 SOL   HW1      218    1.828145981    1.051317334   -2.226885080
   58 SOL   HW2      219   -0.194684193   -0.006638385   -0.439845473
   59 SOL   OW       220   -0.049092144   -0.460692912    0.365077376
   59 SOL   HW1      221    3.528887272   -0.332399249   -2.012113810
   59 SOL   HW2      222    3.036418676    3.121656179    1.560366750
   60 SOL   OW       223   -0.523717225   -0.068684913    0.478044957
   60 SOL   HW1      224    0.007729853   -0.094545804    0.411472797
   60 SOL   HW2      225   -1.313620329    1.833462834    1.251421332
   61 SOL   OW       226    0.288944036    0.251002371    1.110847712
   61 SOL   HW1      227    0.547957540    0.744189024    0.399723828
   61 SOL   HW2      228   -0.244177476   -1.988564253   -1.160613298
   62 SOL   OW       229   -0.049286909    0.392444104   -0.063139558
   62 SOL   HW1      230    1.026325226   -2.081237078    2.000308275
   62 SOL   HW2      231   -0.266157418    0.926550925   -0.845924556
   63 SOL   OW       232    0.645993888   -0.030220680    0.105749384
   63 SOL   HW1      233    0.591793776   -1.132448912   -1.366116643
   63 SOL   HW2      234   -0.514006317    1.138436198   -0.850713074
   64 SOL   OW       235   -0.390467584    0.190477028    0.688519835
   64 SOL   HW1      236    0.150165945   -1.110193014   -0.539554954
   64 SOL   HW2      237    0.269895345    0.809538424   -0.862397552
   65 SOL   OW       238   -0.348032922   -0.222400323   -0.437617332
   65 SOL   HW1      239    0.714766383    2.757035017    0.093920283
   65 SOL   HW2      240    2.304303885   -0.111661278   -1.382167697
   66 SOL   OW       241   -0.234055817   -0.157504588    1.286524296
   66 SOL   HW1      242    0.460011065   -2.068382502   -1.849757791
   66 SOL   HW2      243    2.551105022    2.216194391   -1.377830267
   67 SOL   OW       244   -0.505917192    0.109121047    0.134767428
   67 SOL   HW1      245    0.178457573    1.502193809   -2.707567930
   67 SOL   HW2      246    0.194007948    1.062246680   -0.423147172
   68 SOL   OW       247   -0.498294055    0.544629514   -0.113606207
   68 SOL   HW1      248    1.375889063   -1.321999073   -0.093159951
   68 SOL   HW2      249   -1.859302044   -0.967266083   -1.463679314
   69 SOL   OW       250   -0.431054473   -0.557935655    0.078555971
   69 SOL   HW1      251    1.170426011   -0.272037208    1.127897978
   69 SOL   HW2      252    0.285319924    2.860373735   -0.855914474
   70 SOL   OW       253   -0.207805634    0.367663682   -0.365012378
   70 SOL   HW1      254   -0.174485058   -4.037394524   -0.260685384
   70 SOL   HW2      255    0.452999622   -0.291623920    1.903780222
   71 SOL   OW       256    0.275896460    0.287561178   -0.069070078
   71 SOL   HW1      257   -0.456698090    0.243323177   -0.519320130
   71 SOL   HW2      258   -2.342356443    1.875041008    2.414900780
   72 SOL   OW       259    0.897907317    0.056949139    0.731082916
   72 SOL   HW1      260    1.062341809   -1.276218653    0.633293748
   72 SOL   HW2      261    1.357391596   -0.625823081    0.918249130
   73 SOL   OW       262    0.419587344    0.408023566   -0.416142195
   73 SOL   HW1      263    0.833434343   -1.664340377   -0.580865324
   73 SOL   HW2      264   -0.735663891   -0.170550838    0.574993730
   74 SOL   OW       265   -0.477782816   -0.335989922    0.126885384
   74 SOL   HW1      266   -0.288696498   -0.610274434    1.351936936
   74 SOL   HW2      267    2.310872555    0.028251892    1.005479693
   75 SOL   OW       268   -0.226893455   -0.326835126   -0.202726528
   75 SOL   HW1      269   -0.992806911   -1.005057812    0.249916703
   75 SOL   HW2      270    0.737746716   -2.329550505   -0.671901524
   76 SOL   OW       271    0.224857822    0.478537112    0.040146697
   76 SOL   HW1      272   -1.239761472    1.058666706    0.567477345
   76 SOL   HW2      273    2.271321058    0.477393538   -1.584856153
   77 SOL   OW       274    0.454082996    0.433432937   -0.207390085
   77 SOL   HW1      275   -1.242835164   -3.476005793    0.904580474
   77 SOL   HW2      276   -3.183118820    2.135066986    3.376965761
   78 SOL   OW       277    0.329938650    0.319710076    0.318208963
   78 SOL   HW1      278    1.946595430   -3.952781439    0.194313005
   78 SOL   HW2      279    1.370991707   -0.710108697    0.040986266
   79 SOL   OW       280   -0.136808738    0.590796232   -0.106275685
   79 SOL   HW1      281   -1.445154190    1.251548052    2.529438734
   79 SOL   HW2      282    0.381263733   -3.236868382   -1.664615870
   80 SOL   OW       283    0.526126623    0.973374426    0.026432550
   80 SOL   HW1      284   -0.460542887   -1.807629347    0.179565832
   80 SOL   HW2      285    0.088142261    1.146754146   -3.736949444
   81 SOL   OW       286    0.206647336   -0.534108996    0.022494847
   81 SOL   HW1      287    0.576661348    0.548935771    1.156471252
   81 SOL   HW2      288    0.903500795   -0.635499120    1.298741817
   82 SOL   OW       289   -0.696522474    0.221929818   -0.146834254
   82 SOL   HW1      290    0.442672968    0.721057713   -0.146144480
   82 SOL   HW2      291    0.787869871    0.949477255   -3.057578564
   83 SOL   OW       292   -0.304659903    0.292319089   -0.206977919
   83 SOL   HW1      293   -1.224856138   -0.205616415   -2.105814695
   83 SOL   HW2      294   -0.906686783    0.991877437   -1.252272010
   84 SOL   OW       295   -0.293685079    0.007026505    0.297892302
   84 SOL   HW1      296    0.627868772   -0.538936138   -1.364737630
   84 SOL   HW2      297    0.792331040    1.117802382   -1.599593282
   85 SOL   OW       298    0.199483499   -1.015629053    0.187253222
   85 SOL   HW1      299    0.179455712   -0.666129589    0.368775129
   85 SOL   HW2      300    2.034619570    3.759736776    1.832131982
   86 SOL   OW       301   -0.310229987   -0.218608290   -0.391753405
   86 SOL   HW1      302    0.064672790   -4.542991638   -3.214152575
   86 SOL   HW2      303   -1.123984575    0.728344500    0.863389015
   87 SOL   OW       304   -0.115557663   -0.336111903   -0.086138517
   87 SOL   HW1      305   -1.126186848   -3.755859137   -2.095549345
   87 SOL   HW2      306   -3.917989016   -0.322935075    0.938252866
   88 SOL   OW       307   -0.240789309   -0.535239577   -0.325526565
   88 SOL   HW1      308    0.012185293    0.297172189    0.150294080
   88 SOL   HW2      309    2.511995792    0.936622739    1.513251543
   89 SOL   OW       310   -0.668244183    0.175538689    0.358156264
   89 SOL   HW1      311   -0.714829385    1.278567672   -2.041311741
   89 SOL   HW2      312    0.054461069   -1.631791353    0.297301024
   90 SOL   OW       313    0.923900187   -0.064842999    0.296893269
   90 SOL   HW1      314   -2.614569426    1.622270107   -0.046905272
   90 SOL   HW2      315   -2.480768919    1.195531726   -1.231229544
   91 SOL   OW       316    0.088940270    0.099987730    0.056212962
   91 SOL   HW1      317   -1.639562488    1.369030714   -3.199187517
   91 SOL   HW2      318   -0.780077815   -1.599101305   -2.745209217
   92 SOL   OW       319    0.048391208   -0.297362030    0.369953603
   92 SOL   HW1      320   -0.107709147   -0.270355433    0.776113272
   92 SOL   HW2      321    0.658947229   -2.493429422   -2.075868845
   93 SOL   OW       322    0.053651709    0.206925526    0.090312533
   93 SOL   HW1      323    1.717724323    0.077490516   -0.246835455
   93 SOL   HW2      324   -0.808954477    1.966097236    3.610807419
   94 SOL   OW       325    0.472764283   -0.369710743   -0.038042523
   94 SOL   HW1      326   -1.147563100    0.563111782    0.581362724
   94 SOL   HW2      327   -0.161022946   -0.811457753   -0.077698357
   95 SOL   OW       328    0.060373742   -0.333749503    0.087660708
   95 SOL   HW1      329   -0.752550125   -3.377166271    0.353438467
   95 SOL   HW2      330    0.093747258    0.033487078   -0.334946990
   96 SOL   OW       331    0.421704888    0.259283215    0.003062688
   96 SOL   HW1      332   -1.225825787   -0.092951328    1.845169067
   96 SOL   HW2      333    2.043249130   -2.593040466    0.625911236
   97 SOL   OW       334    0.096756637   -0.374207437    0.706149578
   97 SOL   HW1      335   -3.278356791    0.409114093    0.676578760
   97 SOL   HW2      336    0.402893156   -1.841634035    0.651839912
   98 SOL   OW       337    0.013941334   -0.539781272   -0.061597794
   98 SOL   HW1      338   -1.209858298    2.907333136   -1.099112272
   98 SOL   HW2      339   -1.447358727    1.797452092   -3.372608185
   99 SOL   OW       340    0.264261305   -0.317037463    0.086669378
   99 SOL   HW1      341    0.308373779   -0.499723405    1.291990042
   99 SOL   HW2      342    0.088684738   -1.124162078    2.642262697
  100 SOL   OW       343   -0.431970417   -0.105055504   -0.591757894
  100 SOL   HW1      344   -2.046584845    0.596925735    1.404505491
  100 SOL   HW2      345    2.642816305    0.152503967   -1.371202826
  101 SOL   OW       346    0.610744953    0.389683068    0.665139079
  101 SOL   HW1      347   -0.551413715   -1.133056998   -3.734387636
  101 SOL   HW2      348   -0.605702519   -0.641893983    0.601933479
  102 SOL   OW       349    0.113164857   -0.063327454   -0.048161726
  102 SOL   HW1      350    0.947215438    1.172408581    0.214969531
  102 SOL   HW2      351   -1.776328802   -0.729838312    1.378185868
  103 SOL   OW       352    0.598919749    0.134133726   -0.725876153
  103 SOL   HW1      353    1.815006137   -2.475423574    0.729113877
  103 SOL   HW2      354    0.425510705    0.476010770    1.765514374
  104 SOL   OW       355    0.274820954   -0.240887657   -0.606616318
  104 SOL   HW1      356   -3.905474663    0.002721079    2.066899300
  104 SOL   HW2      357   -1.389959574    0.075221121    0.558668137
  105 SOL   OW       358   -0.202858031   -0.478265345    0.335815758
  105 SOL   HW1      359    0.965521038   -0.116736792   -0.703354359
  105 SOL   HW2      360   -0.602309644   -1.335132360    1.889196515
  106 SOL   OW       361    0.279473722   -0.239304051    0.901538849
  106 SOL   HW1      362   -2.035016537   -1.580855250    1.838859677
  106 SOL   HW2      363    1.601291776    1.466166615    1.891818881
  107 SOL   OW       364   -0.405809224    0.001639693   -0.239994437
  107 SOL   HW1      365    0.912244976    1.086000919   -3.602414131
  107 SOL   HW2      366    0.785527587   -2.595622063    0.020856971
  108 SOL   OW       367   -0.367363781    0.126791701    0.207991153
  108 SOL   HW1      368    1.053117871    3.727104187   -0.752159715
  108 SOL   HW2      369   -2.428785086   -2.005825520   -1.604442000
  109 SOL   OW       370    0.204050556    0.149073392   -0.027313836
  109 SOL   HW1      371   -0.744785845   -1.906429291   -3.140559196
  109 SOL   HW2      372   -2.048817396   -1.299558997   -1.595753312
  110 SOL   OW       373    0.819786489   -1.059087873   -0.183508277
  110 SOL   HW1      374    0.846895576    0.908861578    0.125265732
  110 SOL   HW2      375   -0.265196234    0.848682463   -1.261973977
  111 SOL   OW       376    0.597212434   -0.052531749    0.008368610
  111 SOL   HW1      377   -2.146975279    0.162634894   -0.327811509
  111 SOL   HW2      378    1.323034406   -0.039583612   -4.231066704
  112 SOL   OW       379   -0.043629590    0.141123399   -0.289549291
  112 SOL   HW1      380    2.783024549   -2.250488758    0.986776173
  112 SOL   HW2      381   -0.248294383   -0.227527812    2.358781815
  113 SOL   OW       382    0.150646687   -0.308937073    0.173926994
  113 SOL   HW1      383   -0.829642057   -0.101765200   -2.998166084
  113 SOL   HW2      384   -0.965382636   -0.313282430   -1.151900530
  114 SOL   OW       385    0.309727967   -0.134898797   -0.591865301
  114 SOL   HW1      386   -1.608305812   -1.143113852    1.566465378
  114 SOL   HW2      387    0.427740216   -2.421320915    0.812740445
  115 SOL   OW       388    0.333631247   -0.182256252    0.358547717
  115 SOL   HW1      389    0.270281017   -0.725451648   -1.420735598
  115 SOL   HW2      390    0.245323718    2.943001509    1.741211057
  116 SOL   OW       391    0.519053340    0.270625651    0.159790382
  116 SOL   HW1      392   -0.717765629    1.679658771   -0.988201916
  116 SOL   HW2      393    1.943353891    2.406274557    0.209755704
  117 SOL   OW       394   -0.448681325    0.539022684    0.183948860
  117 SOL   HW1      395    3.177066088    2.481626272   -0.647747517
  117 SOL   HW2      396   -1.209567666   -4.853810787    0.587308645
  118 SOL   OW       397    0.351762444    0.032325689   -1.069096327
  118 SOL   HW1      398   -1.450645089    1.047888637   -0.390490234
  118 SOL   HW2      399    0.924539089   -0.000451391   -0.659908295
  119 SOL   OW       400   -0.429109544    0.925827622   -0.163844064
  119 SOL   HW1      401    1.750191927    2.341793060    0.033670984
  119 SOL   HW2      402    1.565075278    0.020063268   -0.886052430
  120 SOL   OW       403   -0.175967366   -0.131660059   -0.311441064
  120 SOL   HW1      404   -0.533616066   -1.169062376   -1.265547514
  120 SOL   HW2      405   -1.389025211   -0.285918921    0.466186732
  121 SOL   OW       406    0.265500814    0.148009017    0.106393844
  121 SOL   HW1      407   -2.557595491   -1.129636407    0.519691348
  121 SOL   HW2      408   -0.540862322    0.537362397   -0.127979875
  122 SOL   OW       409    0.166996300   -0.748342216   -0.495144665
  122 SOL   HW1      410   -1.453034520    1.628406882   -0.744075119
  122 SOL   HW2      411    1.021693110    0.368431419    0.697402775
  123 SOL   OW       412    0.288805306    0.596234024   -0.249722347
  123 SOL   HW1      413    1.488758206   -1.992269635   -1.249348283
  123 SOL   HW2      414    0.068924956   -2.213369846   -2.382200956
  124 SOL   OW       415   -0.183644608   -0.419277161   -0.576189995
  124 SOL   HW1      416    1.517776489   -0.229723349   -0.432908684
  124 SOL   HW2      417    1.959966779   -0.796439230    1.489211679
  125 SOL   OW       418    1.078845859   -0.174254790    0.235177681
  125 SOL   HW1      419    1.952806473    1.673578382    0.181986570
  125 SOL   HW2      420   -0.515993714    0.213682979   -1.635538459
  126 SOL   OW       421    0.109569155   -0.178493321   -0.500098825
  126 SOL   HW1      422    2.858033180    1.020260572   -0.237601161
  126 SOL   HW2      423    0.961740732   -0.984439135   -0.786104679
  127 SOL   OW       424   -0.237177104   -0.703390300    0.718541920
  127 SOL   HW1      425   -0.214459151    0.087720931    0.793384135
  127 SOL   HW2      426    1.186976075    0.993724048    3.256803036
  128 SOL   OW       427    0.363163680    0.290394962   -0.207233503
  128 SOL   HW1      428   -1.299315929    1.127746701    1.181066513
  128 SOL   HW2      429    0.150538594    0.895175040    1.399990201
  129 SOL   OW       430    0.076206803    0.523069084   -0.404385686
  129 SOL   HW1      431   -1.845530272    2.573602915   -1.340253472
  129 SOL   HW2      432    0.063629255    0.090672702    0.755536139
  130 SOL   OW       433    0.488141447    0.209531620   -0.672960222
  130 SOL   HW1      434    0.609638274    1.131644726    2.467199326
  130 SOL   HW2      435    3.732127190    2.417322874    0.066368848
  131 SOL   OW       436    0.114203803    0.054661352   -0.553770900
  131 SOL   HW1      437   -0.923497975   -1.208507776   -1.122107744
  131 SOL   HW2      438   -1.097372532    1.734652996   -2.777475119
  132 SOL   OW       439    0.416137040   -0.344002873   -0.469361544
  132 SOL   HW1      440    0.069701470    0.391134918   -0.337387294
  132 SOL   HW2      441    0.269887149   -0.972776294   -0.339563251
  133 SOL   OW       442   -0.326696903    0.423728555   -0.405481279
  133 SOL   HW1      443   -2.046751499   -1.634141684   -1.136340618
  133 SOL   HW2      444   -0.734955966    0.714256525   -1.605803370
  134 SOL   OW       445    0.240165964   -0.430598378   -0.240581542
  134 SOL   HW1      446   -0.184056193    1.550186157    0.023832139
  134 SOL   HW2      447    1.516648173   -0.766087830    0.198062077
  135 SOL   OW       448    0.522306621    0.553817213   -0.454317451
  135 SOL   HW1      449   -0.455842048    2.554304123   -1.572496891
  135 SOL   HW2      450   -0.675697386   -2.658617735    0.034376170
  136 SOL   OW       451    0.226752117   -0.147087321    0.745155334
  136 SOL   HW1      452   -1.400753260   -0.790208578    0.174171314
  136 SOL   HW2      453    0.826987505   -0.681773305   -1.862528563
  137 SOL   OW       454   -0.448420376    0.174153790    0.779231131
  137 SOL   HW1      455   -3.914217949   -1.180673480   -0.177718014
  137 SOL   HW2      456   -1.553738713   -0.135621876    4.015336514
  138 SOL   OW       457    0.045914315    0.398602635    0.685126305
  138 SOL   HW1      458    1.141399264    3.141642094    1.027753472
  138 SOL   HW2      459   -1.291017532   -0.734311700    0.731445432
  139 SOL   OW       460    0.341083616   -0.170209110   -0.088761233
  139 SOL   HW1      461    0.202659979    2.206893921   -1.718637586
  139 SOL   HW2      462    2.543324709    2.078632832   -1.393566728
  140 SOL   OW       463    0.147026569    0.469227940    0.307571143
  140 SOL   HW1      464    0.225167170    1.548458815   -0.194147557
  140 SOL   HW2      465   -0.432366252    3.194430351    3.706939936
  141 SOL   OW       466    0.016929414   -0.572592139    0.084304467
  141 SOL   HW1      467   -1.250696182   -0.089195177   -0.025570661
  141 SOL   HW2      468    0.329277992    0.225604489    0.022295859
  142 SOL   OW       469    0.402396888   -0.629418910    0.129919708
  142 SOL   HW1      470   -0.963525474    1.323983431    1.322719097
  142 SOL   HW2      471   -1.439238429    0.065928705    3.395821095
  143 SOL   OW       472    0.106049336   -0.236591339   -0.084728725
  143 SOL   HW1      473    1.215487361    0.035606418   -2.451127052
  143 SOL   HW2      474   -0.627159119    1.992780566    2.519920826
  144 SOL   OW       475    0.524867237   -0.000737447   -0.446021885
  144 SOL   HW1      476    0.106567845    1.691846609    0.700541437
  144 SOL   HW2      477   -1.768404245   -0.197781354    1.382113099
  145 SOL   OW       478    0.083657645   -0.950278282   -0.596242487
  145 SOL   HW1      479    3.766608238   -1.324909449    1.761655927
  145 SOL   HW2      480   -0.286695778    0.785858154   -0.607417822
  146 SOL   OW       481   -0.004462617    0.002547796   -0.564972043
  146 SOL   HW1      482    0.978185415    0.568755567   -0.154697165
  146 SOL   HW2      483    0.587362230    0.097559758    1.723402381
  147 SOL   OW       484    0.196552575   -0.666805804    0.048348267
  147 SOL   HW1      485    1.081961989    2.643881798   -0.713496923
  147 SOL   HW2      486   -0.863589048   -3.593071699   -2.853394747
  148 SOL   OW       487    0.091469139   -0.444478720    0.421169579
  148 SOL   HW1      488   -0.530077577   -2.576164961   -1.067560434
  148 SOL   HW2      489    1.370179772   -1.891419053   -0.408631891
  149 SOL   OW       490   -0.032789443   -0.127496973   -0.027928086
  149 SOL   HW1      491   -1.669920802    2.658887863   -0.118684992
  149 SOL   HW2      492   -0.721179128   -0.306507587    2.303290129
  150 SOL   OW       493    0.420012355   -0.365694135   -0.343640149
  150 SOL   HW1      494    1.157369971    0.914047956   -1.513273835
  150 SOL   HW2      495   -1.949649811    1.040624857   -0.106695682
  151 SOL   OW       496    0.310161650   -0.035927430    0.293922782
  151 SOL   HW1      497    1.052388549   -2.117135763    1.445496202
  151 SOL   HW2      498   -1.029036522   -0.423717231   -0.042943258
  152 SOL   OW       499    0.139435485    0.253627330    0.111737363
  152 SOL   HW1      500   -0.503203988   -0.056557771   -0.152785793
  152 SOL   HW2      501   -1.484141946   -0.515590608    0.167060792
  153 SOL   OW       502   -0.376687557    0.566421747    0.197137713
  153 SOL   HW1      503   -2.418890238   -1.337926149   -0.442702711
  153 SOL   HW2      504    0.477785110   -0.736688137    0.125304803
  154 SOL   OW       505   -0.725676358   -0.183596388    0.237420470
  154 SOL   HW1      506   -1.302601099   -0.503693998   -1.342819810
  154 SOL   HW2      507    1.530062318   -0.293190300    1.388101697
  155 SOL   OW       508   -0.764359117   -0.114087202   -0.436927497
  155 SOL   HW1      509   -0.404569983    1.701002002   -2.149386168
  155 SOL   HW2      510    1.178307533   -1.129292130   -0.370969146
  156 SOL   OW       511   -0.026264366   -0.006605371    0.404955685
  156 SOL   HW1      512   -0.610491276   -1.830955148   -1.784605265
  156 SOL   HW2      513    1.195754766    0.143230394    4.694406033
  157 SOL   OW       514    0.121259965   -0.470060766    0.566117465
  157 SOL   HW1      515    2.205067635   -3.842310667    1.721432209
  157 SOL   HW2      516    0.413925350   -3.124762058   -0.855738699
  158 SOL   OW       517    0.423875719    0.462879807   -0.474926323
  158 SOL   HW1      518    0.382615596   -0.727732778   -1.996200442
  158 SOL   HW2      519   -0.963385463    1.755596995    1.063806891
  159 SOL   OW       520    0.600785971   -0.553668022    0.225622118
  159 SOL   HW1      521    0.109059215    1.157591462    0.683896363
  159 SOL   HW2      522   -2.669371367    0.045179401   -2.457138538
  160 SOL   OW       523    0.197055876    0.251326919    0.287828207
  160 SOL   HW1      524   -0.671482563   -0.456456810    0.529597998
  160 SOL   HW2      525    0.093732104   -0.945654154   -1.379883647
  161 SOL   OW       526   -0.563364267   -0.127910525   -0.145042792
  161 SOL   HW1      527    0.469354689    0.159054816   -1.264241576
  161 SOL   HW2      528    0.860008359    1.335067272   -1.927581310
  162 SOL   OW       529    0.589817405    0.377180040    0.318752110
  162 SOL   HW1      530    0.439459562   -1.066111922   -1.277271032
  162 SOL   HW2      531    1.063051462   -2.853059530   -0.232997060
  163 SOL   OW       532   -0.141948074   -0.494668961    0.125143677
  163 SOL   HW1      533   -0.200615928    0.063505284   -0.372532099
  163 SOL   HW2      534   -1.354608417    0.494641572    5.066547871
  164 SOL   OW       535    0.196730062    0.648418009    0.202763930
  164 SOL   HW1      536   -1.561501026   -3.807349682   -1.255957365
  164 SOL   HW2      537    0.844605327   -1.163367271    2.757050276
  165 SOL   OW       538    0.556134403   -0.176091552   -0.000582142
  165 SOL   HW1      539   -0.978333294   -1.049406886   -1.836722612
  165 SOL   HW2      540    0.016641138   -0.319281697   -1.631348252
  166 SOL   OW       541   -0.878978729    0.437756807    0.280284762
  166 SOL   HW1      542   -1.229722977    0.495047063   -2.433731794
  166 SOL   HW2      543    0.413199037   -0.960702717   -0.072445393
  167 SOL   OW       544    0.123452961    0.229314148   -0.868721366
  167 SOL   HW1      545    0.264488667   -0.565852225   -0.427271605
  167 SOL   HW2      546    1.052623749   -3.098650217    1.505754352
  168 SOL   OW       547   -0.131250620   -0.543570518   -0.411659986
  168 SOL   HW1      548   -0.140649885   -1.465102792    0.230023041
  168 SOL   HW2      549    0.361295670    0.013044329   -0.585751414
  169 SOL   OW       550   -0.118582934   -0.169453382    0.539326012
  169 SOL   HW1      551   -2.445319891   -0.686790943   -0.651550472
  169 SOL   HW2      552   -0.244544789   -1.615189075   -0.592404723
  170 SOL   OW       553   -0.443998694    0.177306846   -0.654344320
  170 SOL   HW1      554    0.199732527   -0.873223424    1.925086617
  170 SOL   HW2      555   -3.553730011    1.083026648   -1.066030502
  171 SOL   OW       556    0.483070970   -0.469262719   -0.479299486
  171 SOL   HW1      557   -0.557299852   -0.450159073   -2.583250999
  171 SOL   HW2      558   -0.160728648    0.511852622    0.658328831
  172 SOL   OW       559    0.340879619   -0.276044369   -0.402777821
  172 SOL   HW1      560   -1.786365628   -1.333066106    0.594169974
  172 SOL   HW2      561   -1.055989504    0.394668043    0.938264251
  173 SOL   OW       562    0.091282576   -0.008005075    0.023905095
  173 SOL   HW1      563   -0.736928701    1.012417197    0.198841989
  173 SOL   HW2      564    0.038772777    2.445549488    1.481058955
  174 SOL   OW       565   -0.079189152   -0.466292709   -0.276468873
  174 SOL   HW1      566    3.252049923    0.689585865   -0.618913651
  174 SOL   HW2      567   -1.839451909   -3.813585997    4.243961811
  175 SOL   OW       568   -0.650926530   -0.467519462   -0.235386178
  175 SOL   HW1      569    1.468930364    1.852337718    1.587952733
  175 SOL   HW2      570    0.593400538    1.101391554   -1.130453587
  176 SOL   OW       571    0.584843874    0.184152618   -0.050154090
  176 SOL   HW1      572   -0.057275299   -0.046280537   -0.082914263
  176 SOL   HW2      573    1.484067559    1.245018482   -0.957180500
  177 SOL   OW       574    0.079268210   -0.095012277   -0.361971021
  177 SOL   HW1      575    3.240547657   -0.092146799    0.292248726
  177 SOL   HW2      576    1.939172387    0.589102983    0.075235277
  178 SOL   OW       577    0.263333350    0.047813706   -0.291304260
  178 SOL   HW1      578   -0.423505962    1.007311940    2.820147276
  178 SOL   HW2      579    1.573112369    0.673908412    1.202161551
  179 SOL   OW       580    0.580347121   -0.278331876    0.246021703
  179 SOL   HW1      581    0.150444716    2.329159498   -0.174717084
  179 SOL   HW2      582    0.438785344   -0.562948525    0.858254313
  180 SOL   OW       583    0.360795408   -0.114764832   -0.105928116
  180 SOL   HW1      584   -0.840101421    1.308476448    1.499833465
  180 SOL   HW2      585    1.737980723    2.461520195    1.298637748
  181 SOL   OW       586    0.396531880    0.031775750   -0.156162709
  181 SOL   HW1      587   -1.455924511   -1.772684574    3.688774347
  181 SOL   HW2      588    0.934879243    1.312940836   -1.362362027
  182 SOL   OW       589    0.264978409   -0.289430588    0.303386062
  182 SOL   HW1      590   -3.119243145   -1.991999030   -1.703017116
  182 SOL   HW2      591    0.387580425    0.899782479   -1.242061973
  183 SOL   OW       592   -0.089690357   -0.119745113   -0.358503044
  183 SOL   HW1      593   -0.944740236   -0.496915698    2.142549992
  183 SOL   HW2      594    0.988167405    0.011851792   -1.656948566
  184 SOL   OW       595    0.206430078   -0.008167680   -0.341937423
  184 SOL   HW1      596    1.369853735    0.962208927    0.279746264
  184 SOL   HW2      597    1.079062700    1.182327390   -0.605257094
  185 SOL   OW       598   -0.158875436    0.515986800    0.498712033
  185 SOL   HW1      599    0.443111688   -2.585334778    3.701756239
  185 SOL   HW2      600   -0.386919558   -0.732443571    0.974262536
  186 SOL   OW       601   -0.065576687    0.204709440   -0.093465224
  186 SOL   HW1      602    0.484149158    3.203101158    1.947913885
  186 SOL   HW2      603   -0.147611156   -0.783784449   -0.231464803
  187 SOL   OW       604   -0.368613988    0.045489632   -0.312576979
  187 SOL   HW1      605   -1.547028303   -1.255381584    0.696973741
  187 SOL   HW2      606   -1.017907262    1.212188363    2.362267733
  188 SOL   OW       607   -0.173604757    0.055747125    0.094142981
  188 SOL   HW1      608   -3.092597246    0.751488447    1.097336769
  188 SOL   HW2      609   -1.016807795    0.715845406   -2.393748283
  189 SOL   OW       610   -0.102077745   -0.029797256    0.081189886
  189 SOL   HW1      611   -0.703986228   -0.090838194   -1.879609466
  189 SOL   HW2      612    0.114031963   -0.028344469   -0.549685776
  190 SOL   OW       613    0.066742018    0.199270085    0.011227423
  190 SOL   HW1      614   -1.537288785    2.103695154    0.136041149
  190 SOL   HW2      615    0.011428138    1.052813888    2.064618111
  191 SOL   OW       616   -0.018702799    0.455805421   -0.254715562
  191 SOL   HW1      617   -1.511254787   -1.415528536    0.329281271
  191 SOL   HW2      618   -0.657332242   -1.018365502    0.384054869
  192 SOL   OW       619   -0.084433325    0.511151850   -0.266527474
  192 SOL   HW1      620   -0.365802079   -1.489763021    0.166762173
  192 SOL   HW2      621   -2.129259348    0.059274573    0.047726896
  193 SOL   OW       622   -0.399616987   -0.280119658    0.645381749
  193 SOL   HW1      623   -0.223314613   -0.732149124   -2.634607792
  193 SOL   HW2      624   -0.981180549    0.710435987   -0.654806554
  194 SOL   OW       625   -0.697761893   -0.065082334    0.039463289
  194 SOL   HW1      626   -0.313718438   -2.019348860    0.728761196
  194 SOL   HW2      627   -0.882315218   -1.326707959   -1.717914939
  195 SOL   OW       628   -0.471063405   -0.356265992    0.646798432
  195 SOL   HW1      629    1.964211106   -0.892070055    0.422975570
  195 SOL   HW2      630    0.398206592   -1.013307810   -2.397120714
  196 SOL   OW       631    0.389128178   -0.560227692   -0.582820475
  196 SOL   HW1      632    0.236713499   -1.540022492    1.303812861
  196 SOL   HW2      633    0.305719048   -0.004096170    1.215726376
  197 SOL   OW       634    0.420823038   -0.009358192    0.102053888
  197 SOL   HW1      635   -0.777477384    0.663410962    2.631629944
  197 SOL   HW2      636   -0.134324551    2.773937941    0.164964855
  198 SOL   OW       637    0.461923659    0.263314217   -0.278653741
  198 SOL   HW1      638   -0.744647384   -0.431683242   -0.626456499
  198 SOL   HW2      639    0.659266353   -0.102459714   -0.678544283
  199 SOL   OW       640   -0.285172254    0.286275655    0.325048000
  199 SOL   HW1      641    1.559827566    2.310678244   -0.694314599
  199 SOL   HW2      642   -3.052650928   -0.265801072    0.264959127
  200 SOL   OW       643    0.517623365    0.813923061   -0.743808031
  200 SOL   HW1      644    2.109844923    1.653546691   -0.687561870
  200 SOL   HW2      645   -0.610451698   -2.533486128   -0.365384012
  201 SOL   OW       646   -0.249419793    0.073907331   -0.086172961
  201 SOL   HW1      647    0.629492819    1.695071220   -1.747297764
  201 SOL   HW2      648   -4.151974201    0.091600895    1.228100777
  202 SOL   OW       649   -0.433815062    0.287265062    0.191944271
  202 SOL   HW1      650    0.937313557    1.607312918   -0.954256475
  202 SOL   HW2      651    0.080882259   -3.089804888    2.213475943
  203 SOL   OW       652    0.373526901   -0.551742435    0.369097531
  203 SOL   HW1      653   -1.906471491    1.700548768    0.868935049
  203 SOL   HW2      654    0.054711234    1.314689040    1.483951449
  204 SOL   OW       655   -0.020234326   -0.520622849   -0.204512015
  204 SOL   HW1      656   -1.108303785   -1.337092161   -1.230554938
  204 SOL   HW2      657    0.664940059    0.345463246    0.911863565
  205 SOL   OW       658   -0.565356493   -0.392852306    0.398310483
  205 SOL   HW1      659   -2.513036013   -0.741317391    0.759154320
  205 SOL   HW2      660   -3.969824076   -0.315435857    0.490334153
  206 SOL   OW       661   -0.230963960    0.706146181    0.798701048
  206 SOL   HW1      662    0.902218521    2.119145155   -0.520633221
  206 SOL   HW2      663    1.175734878    0.548818171    1.351753235
  207 SOL   OW       664    0.181805596   -0.163007453    0.123051107
  207 SOL   HW1      665   -2.497538090    0.693083465   -1.604124546
  207 SOL   HW2      666    0.933578968   -0.844959199    1.603245258
  208 SOL   OW       667   -0.383876413   -0.058773324    0.485857755
  208 SOL   HW1      668   -2.703969717    2.940258026   -2.097882032
  208 SOL   HW2      669   -0.260304719   -0.504543722   -1.780464411
  209 SOL   OW       670   -0.461095244   -0.255206972   -0.478715450
  209 SOL   HW1      671    1.420097828   -0.217131495   -0.159491807
  209 SOL   HW2      672   -0.212976813    0.314061284    1.811210632
  210 SOL   OW       673    0.595961750   -0.176983103   -0.204998642
  210 SOL   HW1      674   -1.963389158   -0.774090469    1.231696248
  210 SOL   HW2      675    0.331112444   -1.016403913   -1.134985924
  211 SOL   OW       676    0.040303752    0.002635385   -0.199930251
  211 SOL   HW1      677    0.021168379   -1.414630651    2.281772375
  211 SOL   HW2      678    1.830526471    1.202134609   -2.087720156
  212 SOL   OW       679    0.164094791    0.249595791   -0.515799820
  212 SOL   HW1      680   -0.089654699    4.465007305    1.222184777
  212 SOL   HW2      681   -0.007534387    0.341059506   -2.543649197
  213 SOL   OW       682    0.254124075   -0.384435505    0.438740522
  213 SOL   HW1      683   -1.063888311    0.879614651   -3.368358850
  213 SOL   HW2      684    0.194750279    1.772232413   -0.793326557
  214 SOL   OW       685    0.337541997   -0.241315082    0.106971309
  214 SOL   HW1      686   -0.851039171   -1.106814861    1.995817780
  214 SOL   HW2      687    1.632597566   -1.066669941    1.409577966
  215 SOL   OW       688   -0.278897375    0.676413834    0.499015659
  215 SOL   HW1      689    0.697795451    1.590956807    1.673433423
  215 SOL   HW2      690   -0.473299026    0.476949811   -2.177246809
  216 SOL   OW       691    0.193146139    0.288652807    0.116707854
  216 SOL   HW1      692   -0.782844961   -0.678449333    2.728459597
  216 SOL   HW2      693   -0.038285952    1.566024780    0.546614468
  217 SOL   OW       694    0.155510247    0.342864871   -0.222421095
  217 SOL   HW1      695   -0.516680360    0.369559884    1.176407576
  217 SOL   HW2      696    1.333663583    0.478456974   -1.705159187
  218 SOL   OW       697   -0.646112502    0.073951505   -0.327310532
  218 SOL   HW1      698   -3.849443436    0.542458951    1.335832477
  218 SOL   HW2      699   -0.496529102    0.105508886   -0.968268573
  219 SOL   OW       700   -0.323677361    0.279271692   -0.221470669
  219 SOL   HW1      701   -2.293910742    3.064569950    0.328766108
  219 SOL   HW2      702   -0.957836032   -0.189172238   -1.231054187
  220 SOL   OW       703   -0.249886379   -0.360113174    0.569797993
  220 SOL   HW1      704   -0.867118835   -0.394817531   -1.874716282
  220 SOL   HW2      705   -2.499233723   -2.070160389   -1.934941053
  221 SOL   OW       706   -0.706811965    0.782564104   -0.046869069
  221 SOL   HW1      707   -0.052203190   -0.360577941   -0.642300725
  221 SOL   HW2      708    4.208900452   -3.063098669   -2.219769955
  222 SOL   OW       709    0.554006100   -0.005116812   -0.370175272
  222 SOL   HW1      710   -1.102892876   -0.724874139    1.220823288
  222 SOL   HW2      711    2.096060276    2.125502586    0.363873333
  223 SOL   OW       712   -0.314511567   -0.229475692   -0.242825329
  223 SOL   HW1      713   -1.469308615   -0.621247172   -3.589195967
  223 SOL   HW2      714    1.828969717   -1.970412374   -0.524701953
  224 SOL   OW       715    0.284470409   -0.061726172   -0.289976001
  224 SOL   HW1      716    0.731996179    0.347391546   -0.176474363
  224 SOL   HW2      717   -2.756961584    0.693496823    0.690857232
  225 SOL   OW       718    0.406336457    0.375119865    0.087508135
  225 SOL   HW1      719   -3.205386400   -2.360507011    2.091298819
  225 SOL   HW2      720    1.405054569    0.586202264    1.338001132
  226 SOL   OW       721    0.606973231   -0.052829403   -0.400846094
  226 SOL   HW1      722   -0.310625345   -1.627937675    1.389217973
  226 SOL   HW2      723   -0.152943522    1.174132347    1.197751880
  227 SOL   OW       724   -0.253540993    0.143657699    0.188580826
  227 SOL   HW1      725    0.204036400    0.959555864   -0.458416641
  227 SOL   HW2      726   -3.129486799    3.125598669    1.714210749
  228 SOL   OW       727   -0.256239086   -0.179490715    0.629105687
  228 SOL   HW1      728    2.664826870   -2.241402626    0.447791845
  228 SOL   HW2      729    1.054054737   -0.675036728    2.089698315
  229 SOL   OW       730   -0.417570770    0.157858893    0.245129898
  229 SOL   HW1      731    0.083273493    0.557916760    1.004904509
  229 SOL   HW2      732   -1.437829852    1.832243443    0.396632105
  230 SOL   OW       733   -0.182268396   -0.238228917    0.643736780
  230 SOL   HW1      734    1.291529179    0.792701304   -3.386935472
  230 SOL   HW2      735   -2.382671118   -2.740256786    0.740337968
  231 SOL   OW       736   -0.127398238   -0.524992108    0.427239984
  231 SOL   HW1      737    0.442109376    0.311665535    2.247616529
  231 SOL   HW2      738    2.539543867   -1.264069080    1.245558262
  232 SOL   OW       739   -0.354756057   -0.375059247   -0.118743531
  232 SOL   HW1      740    1.628493190   -0.363099784    1.782567739
  232 SOL   HW2      741    0.009084961    4.467227936    1.973165631
  233 SOL   OW       742    0.273402423    0.016854174   -0.194929436
  233 SOL   HW1      743    1.177739978   -2.308118820   -0.476382583
  233 SOL   HW2      744   -3.698188066    0.042258069    0.787844300
  234 SOL   OW       745    0.427075475   -0.234890103    0.156210646
  234 SOL   HW1      746   -1.370787382   -1.244435072   -1.448844075
  234 SOL   HW2      747   -0.620742440    1.149152637   -1.285910845
  235 SOL   OW       748    0.505235076   -0.470517039   -0.309727222
  235 SOL   HW1      749    1.260614514    1.625381827    1.678751111
  235 SOL   HW2      750    0.536414087   -0.482313484    1.106353164
  236 SOL   OW       751   -0.099694379   -0.177149042    0.131308794
  236 SOL   HW1      752   -1.589433670   -1.331317067   -1.086961508
  236 SOL   HW2      753   -0.000192391   -1.298516989    2.160443544
  237 SOL   OW       754   -0.658923924   -0.364935130    0.000606323
  237 SOL   HW1      755    1.306509614    0.615249157    1.054348230
  237 SOL   HW2      756   -0.220843747    0.762432635   -0.485809445
  238 SOL   OW       757   -0.024079321    0.159075752   -0.060010899
  238 SOL   HW1      758   -2.284263849   -3.315412521    2.126429796
  238 SOL   HW2      759    3.500298977   -1.319409013   -1.140884399
  239 SOL   OW       760   -0.518482387   -0.187041923   -0.343259960
  239 SOL   HW1      761   -1.228895903   -1.624231100    1.759868741
  239 SOL   HW2      762   -1.995548487   -0.895029664    2.638760567
  240 SOL   OW       763   -0.689117551    0.650975585   -0.490104914
  240 SOL   HW1      764    1.887121916    2.708637476   -0.410920531
  240 SOL   HW2      765   -0.284856677    1.437555194    1.314835668
  241 SOL   OW       766    0.235894158   -0.284232169    0.210152373
  241 SOL   HW1      767   -1.007493496   -0.519522309    0.625519633
  241 SOL   HW2      768   -0.413147599    3.038055420   -0.292481035
  242 SOL   OW       769   -0.277584881   -0.617003024   -0.129431888
  242 SOL   HW1      770    1.169323444   -0.133961812    0.059430454
  242 SOL   HW2      771   -1.468385696    0.659214079    0.035355065
  243 SOL   OW       772    0.245499045   -0.330067009   -0.040173903
  243 SOL   HW1      773   -0.704007149    0.989855289   -1.377974629
  243 SOL   HW2      774    2.028524160   -1.146965981    0.655022204
  244 SOL   OW       775   -0.005258130   -0.473149449    0.366480887
  244 SOL   HW1      776   -1.178948641    1.127588391   -1.091020584
  244 SOL   HW2      777    2.359634161   -0.887124360   -0.134107694
  245 SOL   OW       778   -0.857199371   -0.529532313   -0.267238915
  245 SOL   HW1      779    3.993570566    0.064532340   -1.720221162
  245 SOL   HW2      780   -1.322039485    0.980230391   -1.175063491
  246 SOL   OW       781   -0.334948361   -0.557197511   -0.067857519
  246 SOL   HW1      782    1.980821967   -0.055222340    0.744737029
  246 SOL   HW2      783   -0.822587430    1.496640801    2.798660994
  247 SOL   OW       784   -0.213473007    0.290088266   -0.445963711
  247 SOL   HW1      785   -0.781234503    1.277603030   -1.340414166
  247 SOL   HW2      786    0.130415812   -0.707043350   -0.553890765
  248 SOL   OW       787   -0.266484648    0.605956376    0.058438338
  248 SOL   HW1      788   -0.045164611    0.909061968   -0.149957299
  248 SOL   HW2      789   -2.172703266    1.570993423    1.665283203
  249 SOL   OW       790    0.073743962    0.038603388    0.062656380
  249 SOL   HW1      791   -1.544856191    1.856836200    1.810894251
  249 SOL   HW2      792    1.087277770   -1.443884492   -0.520630240
  250 SOL   OW       793    0.432383955   -0.209286377   -0.229362950
  250 SOL   HW1      794    1.483375192    0.214737937   -0.524061382
  250 SOL   HW2      795    0.605482280   -2.333624363    0.938577652
  251 SOL   OW       796   -0.171007052   -0.040581431    0.004417958
  251 SOL   HW1      797    1.503809929   -2.152338028   -0.681934476
  251 SOL   HW2      798    1.147034526    2.791923523   -0.189378798
  252 SOL   OW       799    0.232452318   -0.154209107    0.864276886
  252 SOL   HW1      800    2.466125488   -3.060154915   -3.611464739
  252 SOL   HW2      801    0.323117256    1.408716798   -1.153814316
  253 SOL   OW       802    0.070797920    0.037503514    0.581567347
  253 SOL   HW1      803   -2.959608316    1.662035942   -1.366465449
  253 SOL   HW2      804   -2.334103584   -0.195860162    0.279248118
  254 SOL   OW       805    0.264222831    0.388283938   -1.048185945
  254 SOL   HW1      806    1.206720829    1.170342207   -0.814269245
  254 SOL   HW2      807   -1.534316301    0.379167825   -1.110725164
  255 SOL   OW       808   -0.993061841   -0.155057058   -0.228188932
  255 SOL   HW1      809   -2.157302618   -3.606498718    1.166358471
  255 SOL   HW2      810    1.547413230   -2.695709467    0.801300108
  256 SOL   OW       811    0.874181628   -0.404361337    0.376086533
  256 SOL   HW1      812   -0.683648288   -0.096987367    1.175524831
  256 SOL   HW2      813    0.983924806   -1.256025314   -0.357986629
  257 SOL   OW       814    0.075751320   -0.464892268    0.544677198
  257 SOL   HW1      815    1.927003145    0.056981247   -2.317997932
  257 SOL   HW2      816    0.994574130   -0.863158345    1.067918539
  258 SOL   OW       817    0.400205672   -0.065731518    0.059767861
  258 SOL   HW1      818   -0.090009093   -3.334439754    1.209526181
  258 SOL   HW2      819   -0.911868274   -1.588796496   -1.562360644
  259 SOL   OW       820   -0.446419120   -0.293081075   -0.128275305
  259 SOL   HW1      821   -0.656695127   -1.267561436    0.878141046
  259 SOL   HW2      822   -0.430300891   -0.964432895   -1.155919194
  260 SOL   OW       823   -0.145374358    0.121406183   -1.119528651
  260 SOL   HW1      824   -0.457870364    0.752209842   -0.557060122
  260 SOL   HW2      825    0.695684314    0.764058530   -3.243856192
  261 SOL   OW       826    0.281410396   -0.144395396    0.223514900
  261 SOL   HW1      827   -0.479992360    0.702629983    0.487375200
  261 SOL   HW2      828    3.006580591   -0.734808981   -1.470804811
  262 SOL   OW       829   -1.076239109   -0.238489494    0.936411560
  262 SOL   HW1      830    2.326601028    3.712935209    0.530513227
  262 SOL   HW2      831    0.065684520    0.931208730   -0.380184710
  263 SOL   OW       832    0.284539759    0.096720465   -0.094530128
  263 SOL   HW1      833    1.073227525   -0.435631573   -0.123444580
  263 SOL   HW2      834    0.097424589   -2.274379253    1.729732037
  264 SOL   OW       835   -0.112945907    0.282567859   -0.585845053
  264 SOL   HW1      836   -2.453061342   -1.013343811   -0.133080006
  264 SOL   HW2      837    0.032282077    2.782924175   -1.368524313
  265 SOL   OW       838   -0.528192520    0.530554950    0.059499260
  265 SOL   HW1      839    1.966958880   -0.704226255    1.126586437
  265 SOL   HW2      840   -0.272673994   -0.719476700   -0.140287250
  266 SOL   OW       841    0.095835432   -0.269599944    0.290879548
  266 SOL   HW1      842   -1.520272493    2.238475561    0.354045540
  266 SOL   HW2      843    0.791890204   -2.360227108    0.539266586
  267 SOL   OW       844    0.364841700    0.001834281    0.523706079
  267 SOL   HW1      845   -1.779607892   -0.844274521    1.002696037
  267 SOL   HW2      846   -1.587154388    1.608874798   -0.548265815
  268 SOL   OW       847   -0.434204727    0.680864751   -0.284970850
  268 SOL   HW1      848    0.324220479   -1.420998096   -1.363894820
  268 SOL   HW2      849    2.721831560    2.566538572    0.748430789
  269 SOL   OW       850   -0.236823812   -0.282223612    0.502456248
  269 SOL   HW1      851   -0.110140979    3.015550613   -1.095010638
  269 SOL   HW2      852    0.171545357   -2.663016081    1.292413712
  270 SOL   OW       853    0.595317960   -0.519857287   -0.202858746
  270 SOL   HW1      854   -1.112149000    0.580679297   -2.184561968
  270 SOL   HW2      855   -0.810419440    2.155775070    0.597376466
  271 SOL   OW       856   -0.563744724    0.026421349    0.410258025
  271 SOL   HW1      857    0.819600940    0.306181580   -1.332144141
  271 SOL   HW2      858    1.051048636   -0.839401960    0.359371006
  272 SOL   OW       859   -0.006334301   -0.013392247   -0.178615451
  272 SOL   HW1      860   -2.054882050    1.698562503   -0.053913057
  272 SOL   HW2      861    3.334999561    0.124010660   -3.040240765
  273 SOL   OW       862   -0.062891893    0.233081907    0.659392655
  273 SOL   HW1      863   -0.143701151    0.066661164   -2.040647030
  273 SOL   HW2      864   -0.803466797    1.289282680    4.247751713
  274 SOL   OW       865   -0.204771161    0.049395803    0.073066510
  274 SOL   HW1      866    0.949400663    1.463326216   -2.038486242
  274 SOL   HW2      867   -2.068697214    2.257102489   -3.448232651
  275 SOL   OW       868    0.296978533   -0.571172893    0.119803563
  275 SOL   HW1      869    2.430772305    1.074268937   -0.201154277
  275 SOL   HW2      870    1.688219547    0.097890556   -0.465893626
  276 SOL   OW       871   -0.389385462   -0.021988606   -0.422359943
  276 SOL   HW1      872    1.910406351   -0.434004337    1.452249408
  276 SOL   HW2      873    0.605336368   -1.024806261    0.892204344
  277 SOL   OW       874   -0.425375134    0.158656165   -0.451245844
  277 SOL   HW1      875   -2.490583897   -0.609710217    2.455952883
  277 SOL   HW2      876    2.139197588    0.565593243   -1.800353765
  278 SOL   OW       877    0.305470556    0.048922908   -0.015340112
  278 SOL   HW1      878   -2.231520891    0.517150521    0.153700337
  278 SOL   HW2      879    1.590966344    0.248866424    0.347311914
  279 SOL   OW       880   -0.254605442    0.012400576    0.059979215
  279 SOL   HW1      881    3.006169319    1.147966743   -0.934444726
  279 SOL   HW2      882    2.143899918    2.347695112   -1.059435487
  280 SOL   OW       883   -0.125411421    1.209867001   -0.033851232
  280 SOL   HW1      884   -0.544197977    0.048376027   -1.188035607
  280 SOL   HW2      885    1.592675447   -1.215046525    1.318476915
  281 SOL   OW       886   -0.316490412   -0.318523943   -0.077020831
  281 SOL   HW1      887   -0.060115375    1.394560575   -1.531288743
  281 SOL   HW2      888    2.859556198    0.968146920    2.177653551
  282 SOL   OW       889    0.244959339   -0.502761722   -0.485088497
  282 SOL   HW1      890   -0.475039840   -2.057145357   -0.698336780
  282 SOL   HW2      891    0.506306946   -1.406099916    0.496038198
  283 SOL   OW       892    0.168082625    0.432092398    1.177618027
  283 SOL   HW1      893    2.620373011    0.935411751   -1.549762011
  283 SOL   HW2      894   -1.189480305    2.215225220   -0.916525543
  284 SOL   OW       895   -0.147632435    0.666950166   -0.527916431
  284 SOL   HW1      896   -2.586202860   -1.017772913   -0.194848731
  284 SOL   HW2      897   -0.532963634   -0.826901197   -2.016844749
  285 SOL   OW       898    0.024254426   -0.651986539   -0.989415884
  285 SOL   HW1      899   -1.608101487    1.844863772    1.356130600
  285 SOL   HW2      900    0.967443228   -2.697712421    2.042806864
  286 SOL   OW       901    0.093559876   -0.832398951   -0.386891156
  286 SOL   HW1      902   -1.110960245    3.418045044    4.185346127
  286 SOL   HW2      903   -0.733120978    2.679506302    0.031560734
  287 SOL   OW       904    0.091862105   -0.392558485    0.089877203
  287 SOL   HW1      905   -0.671742082   -0.254959077    0.629533768
  287 SOL   HW2      906   -1.162509084    0.776090264   -0.161564961
  288 SOL   OW       907   -0.269339770   -0.415599227    0.322534055
  288 SOL   HW1      908   -2.379771709    1.346684217    4.413815975
  288 SOL   HW2      909    0.710573494   -0.944448948   -1.092883945
  289 SOL   OW       910   -0.187708616    0.169244453    0.016858844
  289 SOL   HW1      911    2.271944523    0.320558876   -1.777166247
  289 SOL   HW2      912    0.231591716   -1.161423326    0.345871419
  290 SOL   OW       913   -0.180473939    0.016519571    0.199182481
  290 SOL   HW1      914    1.731982350   -0.829801023    1.555868626
  290 SOL   HW2      915    1.689748287    3.755380630    0.290661335
  291 SOL   OW       916    0.467636466   -0.833528817    0.202583253
  291 SOL   HW1      917    1.327350497   -0.207960159    0.599703729
  291 SOL   HW2      918   -3.387802839    1.088430405   -0.731140792
  292 SOL   OW       919    0.348215133   -0.179418787   -0.200194553
  292 SOL   HW1      920    1.591606379    2.892612457   -1.394285798
  292 SOL   HW2      921   -1.700484753   -0.201577157    0.821054399
  293 SOL   OW       922   -0.246382996   -0.402343959   -0.304787606
  293 SOL   HW1      923    0.006054782    1.725821972   -0.541964173
  293 SOL   HW2      924    0.512221158   -0.083834909    2.799431801
  294 SOL   OW       925    0.049425643   -0.190175742   -0.420015365
  294 SOL   HW1      926   -1.203035235    2.649169683   -0.518482506
  294 SOL   HW2      927   -0.394551873   -1.925596595   -1.978511333
  295 SOL   OW       928    0.317430556   -0.210387781    0.114402801
  295 SOL   HW1      929    1.149242759   -2.820492029   -0.920335472
  295 SOL   HW2      930    0.385156363   -0.261556149   -0.870375633
  296 SOL   OW       931    0.160076112    0.417400807   -0.224511087
  296 SOL   HW1      932   -0.343499154   -2.967297316    1.311610699
  296 SOL   HW2      933    3.615089178   -0.460458219   -2.709035397
  297 SOL   OW       934    0.556117892   -0.308027238    0.130001694
  297 SOL   HW1      935   -2.513552904    0.219327986   -0.336613089
  297 SOL   HW2      936    0.417664915   -0.257162094    1.256259799
  298 SOL   OW       937   -0.226760730    0.316427916    0.378343314
  298 SOL   HW1      938    0.551736534   -0.128486618    0.172514275
  298 SOL   HW2      939    0.288443327    1.482325554    1.195286989
  299 SOL   OW       940    0.324070722    0.691491246    0.033438187
  299 SOL   HW1      941   -1.744696021   -2.068206787   -0.152035937
  299 SOL   HW2      942    1.641758680    0.382154435   -1.510743976
  300 SOL   OW       943   -0.532397449   -0.024947269   -0.090607181
  300 SOL   HW1      944    2.524722338    1.682023883   -1.706114054
  300 SOL   HW2      945   -0.622503579    0.512205958    2.536144495
  301 SOL   OW       946    0.194826573    0.219860986   -0.118419640
  301 SOL   HW1      947   -1.892665505    2.020934105   -1.609218717
  301 SOL   HW2      948   -0.432185084   -2.525457859    1.428397059
  302 SOL   OW       949    0.187433153    0.007009441    0.271158814
  302 SOL   HW1      950   -0.929992557   -0.336864799   -0.160598397
  302 SOL   HW2      951    1.348817110    0.571594536   -0.191360787
  303 SOL   OW       952    0.118922681   -0.228082314    0.113319449
  303 SOL   HW1      953   -1.817578912    0.058392379   -1.672397614
  303 SOL   HW2      954   -0.362153172    0.619701803   -4.053528309
  304 SOL   OW       955   -0.481052488   -0.558245003    0.188544452
  304 SOL   HW1      956   -1.495297432   -0.920936227   -2.249798775
  304 SOL   HW2      957    1.535344362    0.206189707   -1.715575218
  305 SOL   OW       958   -0.605490565   -0.469313502   -0.475070566
  305 SOL   HW1      959    2.284674168   -0.782415509   -1.698871851
  305 SOL   HW2      960    2.940211296    0.753336728    1.849159598
  306 SOL   OW       961   -0.253613234   -0.232044026    0.155125335
  306 SOL   HW1      962   -0.622510493    2.894812107   -1.402859807
  306 SOL   HW2      963   -0.045651820   -1.412319064   -0.546985030
  307 SOL   OW       964    0.182158336   -0.156185091    0.297458708
  307 SOL   HW1      965    0.100535311    0.600788832    0.143216744
  307 SOL   HW2      966   -1.053147316    1.799872279    1.722743750
  308 SOL   OW       967    0.504245937    0.553498685   -0.111278951
  308 SOL   HW1      968    2.177880287   -3.689550400   -0.798708022
  308 SOL   HW2      969    2.830199957    0.432416260   -0.518775642
  309 SOL   OW       970    0.458256602    0.079122424   -0.029912584
  309 SOL   HW1      971    1.643696070    1.186796427   -0.881522536
  309 SOL   HW2      972    0.388387740   -1.181373715   -1.122920513
  310 SOL   OW       973   -0.264812976   -0.330140710   -0.723701954
  310 SOL   HW1      974    0.945229352    0.054415122   -1.515346885
  310 SOL   HW2      975    0.376426011    4.114174843    0.711298466
  311 SOL   OW       976    0.089422382   -0.362224668   -0.203654766
  311 SOL   HW1      977   -0.059860650    2.774292469    0.931743681
  311 SOL   HW2      978   -2.565621138   -0.200586364   -0.296554625
  312 SOL   OW       979   -0.731594622    0.109037660   -0.235989332
  312 SOL   HW1      980   -0.566885471    2.692189693   -0.408532977
  312 SOL   HW2      981   -0.067381017    0.296365380    1.036105037
  313 SOL   OW       982    0.297448158   -0.068244494   -0.419568568
  313 SOL   HW1      983    0.586233854   -1.428751230    1.121699333
  313 SOL   HW2      984    0.391214103   -2.017370939   -1.927533865
  314 SOL   OW       985    0.012270788    0.070869602   -0.645634472
  314 SOL   HW1      986   -2.295468569    0.338284194   -0.307076126
  314 SOL   HW2      987   -2.952091932    0.216059551    0.221951112
  315 SOL   OW       988    0.631223798   -0.142363042    0.234283820
  315 SOL   HW1      989    3.034251690    0.908594906    0.048978310
  315 SOL   HW2      990    1.408366561   -0.192848280    2.474969625
  316 SOL   OW       991    0.252242029    0.348837346    0.058271196
  316 SOL   HW1      992    2.426436186   -2.747549057   -3.054165840
  316 SOL   HW2      993    3.234178066   -2.277527571    1.353830457
  317 SOL   OW       994   -0.002938265   -0.717982829    0.138812408
  317 SOL   HW1      995    0.380879670    0.686362028    1.710262895
  317 SOL   HW2      996    2.180376530   -1.030095577    0.972409487
  318 SOL   OW       997    0.427319169    0.531599522    0.079082236
  318 SOL   HW1      998    0.364452839    0.652425766    2.686914682
  318 SOL   HW2      999    1.013859749   -0.092823371    0.128922969
  319 SOL   OW      1000    0.447875857    0.081985824   -0.228312194
  319 SOL   HW1     1001   -2.136323214   -0.146818027   -0.759229243
  319 SOL   HW2     1002    0.877383113    0.508915424    0.263128966
  320 SOL   OW      1003   -0.205185443    0.121308222    0.711148739
  320 SOL   HW1     1004   -0.827062249   -4.153708458   -0.697983563
  320 SOL   HW2     1005    1.680356860   -0.154951081   -1.495134950
  321 SOL   OW      1006   -0.860520065   -0.092450388    0.236786604
  321 SOL   HW1     1007    1.303712368    0.477410972   -1.946512341
  321 SOL   HW2     1008   -2.664829493   -0.130917057   -0.536034942
  322 SOL   OW      1009   -0.178151295   -0.013691726    0.293576211
  322 SOL   HW1     1010    0.225565046    1.311067939   -2.597357512
  322 SOL   HW2     1011    0.444781095   -0.297191173    0.440522075
  323 SOL   OW      1012   -0.303928435   -0.061380398   -0.282410920
  323 SOL   HW1     1013    0.379637569    1.365840316    1.210954666
  323 SOL   HW2     1014   -1.720137000   -0.521037400    1.693453193
  324 SOL   OW      1015    0.088207148   -0.283554971   -0.196303532
  324 SOL   HW1     1016   -0.867887318   -1.234618306   -3.192801476
  324 SOL   HW2     1017   -0.243617669   -1.148303151   -1.770058751
  325 SOL   OW      1018   -0.392115206   -0.016677687    0.158501565
  325 SOL   HW1     1019    3.115339041    3.125799894    0.465234518
  325 SOL   HW2     1020    0.383028507   -0.773570716   -3.312552214
  326 SOL   OW      1021    0.037383266    0.612969637    0.426760256
  326 SOL   HW1     1022   -1.585045099    1.454111338    0.720896900
  326 SOL   HW2     1023   -0.779662192    0.953739941   -3.147668362
  327 SOL   OW      1024    0.324020922   -0.139519587   -0.039438710
  327 SOL   HW1     1025   -0.212901562    0.549650788   -1.335037708
  327 SOL   HW2     1026   -0.194709823    1.031916261   -0.640363038
  328 SOL   OW      1027    0.794089913    0.945730865   -0.188591212
  328 SOL   HW1     1028   -1.771509051    0.767156541    1.064097047
  328 SOL   HW2     1029    2.493475676    3.908587694    0.274268538
  329 SOL   OW      1030   -0.413144797    0.582806945    0.261297673
  329 SOL   HW1     1031   -1.482585311    1.443789005   -0.686175227
  329 SOL   HW2     1032    0.711425841   -0.960271060   -0.401694268
  330 SOL   OW      1033    0.362864971    0.037689518    0.063077450
  330 SOL   HW1     1034    0.666484475    0.358585089    2.036099911
  330 SOL   HW2     1035   -1.452945709   -0.265552610    1.931268573
  331 SOL   OW      1036    0.480902404   -0.045877911   -0.022528296
  331 SOL   HW1     1037    0.816499114    0.030085849    0.481529236
  331 SOL   HW2     1038   -2.543771982   -1.889314532    2.575626373
  332 SOL   OW      1039   -0.293921083   -0.183588371   -0.341338575
  332 SOL   HW1     1040   -0.454627067   -0.103873566    0.572059929
  332 SOL   HW2     1041   -0.902606249    0.309151411   -0.017418463
  333 SOL   OW      1042    0.277273446   -0.000486563   -0.560895324
  333 SOL   HW1     1043   -0.974904418   -1.028723240   -0.032968979
  333 SOL   HW2     1044   -0.769761503    0.372770697    1.204998493
  334 SOL   OW      1045   -0.814081669    0.958753467   -0.339615405
  334 SOL   HW1     1046    0.421956807   -0.042872254    0.862163126
  334 SOL   HW2     1047   -1.897929072   -2.927928686   -1.559817314
  335 SOL   OW      1048   -0.074648656    0.062974826    0.686872423
  335 SOL   HW1     1049    1.459508419   -1.811788201    1.154978752
  335 SOL   HW2     1050    0.042253532   -0.145795420    1.671048880
  336 SOL   OW      1051   -0.676813185    0.056177080    0.025312422
  336 SOL   HW1     1052    1.826803923    0.322121769   -0.911048293
  336 SOL   HW2     1053    2.188827991   -0.713078141    3.769592047
  337 SOL   OW      1054   -0.193990216   -0.096787907   -0.271601349
  337 SOL   HW1     1055   -0.083024248   -0.189465433    1.074014783
  337 SOL   HW2     1056    0.237116560   -1.605977535    2.443524361
  338 SOL   OW      1057   -0.303513527    0.111455448    0.298203617
  338 SOL   HW1     1058    2.698337555   -0.512519777   -2.144569159
  338 SOL   HW2     1059   -1.384149790    0.786784768   -0.920060277
  339 SOL   OW      1060    0.230860546   -0.234276265    0.824841738
  339 SOL   HW1     1061    2.831147671   -1.759013891    0.714088678
  339 SOL   HW2     1062   -2.208565235   -3.731349468   -0.484805077
  340 SOL   OW      1063   -0.439519525   -0.530023336   -0.602903247
  340 SOL   HW1     1064    2.227737188   -3.072652578    0.560916007
  340 SOL   HW2     1065   -0.465311587    0.814223289   -2.125355482
  341 SOL   OW      1066   -0.388602793   -0.221780121    0.098488979
  341 SOL   HW1     1067    3.037665844    4.295501709   -2.712689161
  341 SOL   HW2     1068    0.700488985   -1.876306176    0.938617885
  342 SOL   OW      1069   -0.171577841    0.614502311    0.360633463
  342 SOL   HW1     1070    1.713050485    0.486406744   -1.373808861
  342 SOL   HW2     1071    0.249853089   -1.148479700   -0.280184686
  343 SOL   OW      1072   -0.310614377   -0.427000970   -0.166835725
  343 SOL   HW1     1073   -3.833977938    1.479481697   -1.600775242
  343 SOL   HW2     1074   -0.459086061   -0.196092457   -1.165511370
  344 SOL   OW      1075   -0.210441768    0.220708266    0.151312098
  344 SOL   HW1     1076   -1.627017140    2.491383791    1.808898449
  344 SOL   HW2     1077    0.434590995   -0.950426042    1.276138425
  345 SOL   OW      1078    0.007404622    0.778852820   -0.480335772
  345 SOL   HW1     1079    0.830020964   -0.890267372    0.333279639
  345 SOL   HW2     1080   -0.334006786   -0.736845315    0.248161465
  346 SOL   OW      1081   -0.374492854    0.489511758   -0.463737607
  346 SOL   HW1     1082   -0.433541536    0.896652460    1.884886742
  346 SOL   HW2     1083    2.553136826   -0.671817124   -1.376994252
  347 SOL   OW      1084    0.058379263   -0.199893922   -0.197520137
  347 SOL   HW1     1085   -0.218417972    0.650767446   -0.321221858
  347 SOL   HW2     1086    1.994505286   -0.336424708   -0.309391320
  348 SOL   OW      1087    0.488477945    0.233264387   -0.306836367
  348 SOL   HW1     1088   -0.676571608   -1.670282125   -1.067368150
  348 SOL   HW2     1089    0.346493959   -1.027248979   -0.232293531
  349 SOL   OW      1090    0.395081788   -0.638134539    0.414569795
  349 SOL   HW1     1091    0.165787026    1.857438326   -0.771993577
  349 SOL   HW2     1092   -0.544109702    0.777944446    1.538555264
  350 SOL   OW      1093   -0.290174693   -0.386762798    0.001799316
  350 SOL   HW1     1094    0.803150952   -0.306896150   -0.068724945
  350 SOL   HW2     1095   -0.619263887   -0.039898567    2.817082882
  351 SOL   OW      1096    0.152700722    0.150361314    0.959063530
  351 SOL   HW1     1097   -0.917947710    1.095702767    0.709534943
  351 SOL   HW2     1098   -3.911808491   -0.073222451   -3.815865040
  352 SOL   OW      1099    0.145900846   -0.046209045    0.003616606
  352 SOL   HW1     1100    1.321508884   -0.277020574   -0.454890370
  352 SOL   HW2     1101    1.825264454    0.654419661   -1.315150976
  353 SOL   OW      1102    0.093541682    0.250374615   -0.607217968
  353 SOL   HW1     1103   -1.611129284   -0.358062565    1.728261232
  353 SOL   HW2     1104    0.389917940   -1.364750266    2.044143677
  354 SOL   OW      1105   -0.029221527    0.328284055   -0.195448771
  354 SOL   HW1     1106    2.376741409   -1.134072065    3.458837748
  354 SOL   HW2     1107    3.014671564   -0.008075763   -0.506479800
  355 SOL   OW      1108    0.802578211   -0.765148401   -0.083809532
  355 SOL   HW1     1109    0.470054716   -1.926977158   -2.328967571
  355 SOL   HW2     1110    1.263553143    1.227927566   -0.358315825
  356 SOL   OW      1111   -0.092145860   -0.329104573    0.086919561
  356 SOL   HW1     1112    1.511335731    0.009726122    0.128470629
  356 SOL   HW2     1113    0.000017527    1.857064605   -0.596457779
  357 SOL   OW      1114    0.083059974   -0.288549870    0.262288570
  357 SOL   HW1     1115   -2.252598763   -0.356688470    3.401374102
  357 SOL   HW2     1116    2.364942551   -2.902682781   -1.368959785
  358 SOL   OW      1117   -0.480714381   -0.377985954   -0.214506373
  358 SOL   HW1     1118   -1.126036406   -1.414143801   -1.513460994
  358 SOL   HW2     1119    0.878337204   -2.393770933    2.166772127
  359 SOL   OW      1120    0.346663386   -0.277632445    0.399043858
  359 SOL   HW1     1121    0.508340418    1.543656230   -0.144376472
  359 SOL   HW2     1122    0.900124788   -0.505262554    3.933999062
  360 SOL   OW      1123   -0.866118848   -0.581120372    0.261512727
  360 SOL   HW1     1124   -1.877151966   -1.946565866    1.219926596
  360 SOL   HW2     1125    0.581743598    0.651779175   -3.451965332
  361 SOL   OW      1126    0.274034441    0.521199465    0.148134857
  361 SOL   HW1     1127    0.753807008   -2.278313160   -1.314135551
  361 SOL   HW2     1128    2.067890882   -3.395810366    0.543058395
  362 SOL   OW      1129    0.204483435    0.368246108   -0.085634083
  362 SOL   HW1     1130    1.732507110   -1.548237324    0.483823270
  362 SOL   HW2     1131   -1.327093959    2.120023966   -4.009039879
  363 SOL   OW      1132   -0.341857731    0.004975991   -0.279057771
  363 SOL   HW1     1133    0.270613313   -0.301859587   -0.153570250
  363 SOL   HW2     1134    2.144940376   -1.434724689   -1.633909225
  364 SOL   OW      1135    0.058913052   -0.149282336   -0.461178452
  364 SOL   HW1     1136   -4.529153824   -3.661478996    0.756969273
  364 SOL   HW2     1137   -0.280450016   -1.262839079   -1.253725767
  365 SOL   OW      1138    0.130725533    0.066663027    0.046468206
  365 SOL   HW1     1139   -0.955103457    0.202030122   -0.395180553
  365 SOL   HW2     1140   -1.580137372   -1.288991570   -0.856134236
  366 SOL   OW      1141   -0.214002311   -0.371791631    0.228427872
  366 SOL   HW1     1142   -0.547497869    1.315494418    1.439039707
  366 SOL   HW2     1143   -0.585991740   -1.320835352   -0.148213699
  367 SOL   OW      1144   -0.911402583    0.469086617   -0.240013257
  367 SOL   HW1     1145   -2.616214752   -1.822057605   -3.242347717
  367 SOL   HW2     1146   -0.501950443   -1.800166130   -0.603685617
  368 SOL   OW      1147   -0.241272107    0.319130212    0.653301954
  368 SOL   HW1     1148   -0.005693547    1.140964508    0.408107966
  368 SOL   HW2     1149    0.119562171    1.507455111   -4.684936047
  369 SOL   OW      1150   -0.208019286    0.254842997    0.268439919
  369 SOL   HW1     1151   -1.739552855   -1.514580488   -2.986207247
  369 SOL   HW2     1152   -0.838404417    1.895767450    0.467158407
  370 SOL   OW      1153   -0.443799913   -0.246411756    0.137396485
  370 SOL   HW1     1154    2.775343180    0.479448378    0.711070657
  370 SOL   HW2     1155    1.482454896    2.253596067    0.152971193
  371 SOL   OW      1156   -0.599956989    0.423985481   -0.625872195
  371 SOL   HW1     1157   -0.978172004    2.989845276   -1.943872213
  371 SOL   HW2     1158   -0.507300735    0.275924444    0.877072215
  372 SOL   OW      1159   -0.159140855   -0.211085930    0.661298037
  372 SOL   HW1     1160   -3.180487871    0.970575929   -2.345343351
  372 SOL   HW2     1161   -0.646811128    0.591549695    2.140937567
  373 SOL   OW      1162   -0.150526211    0.318855286    0.283945590
  373 SOL   HW1     1163    0.166430131    1.490898013    0.614615858
  373 SOL   HW2     1164   -0.948702216    0.473725140    0.123063006
  374 SOL   OW      1165   -0.144094557   -0.613168657    0.162222266
  374 SOL   HW1     1166    0.221386239    0.381266922   -0.095696218
  374 SOL   HW2     1167   -1.262911201   -1.166670799    1.988161564
  375 SOL   OW      1168    0.589929938   -0.450035691   -0.381917566
  375 SOL   HW1     1169   -3.433840036   -1.543871999    0.392596543
  375 SOL   HW2     1170    0.941179574    2.662017107   -0.183666125
  376 SOL   OW      1171   -0.110103890    0.242575392    0.562730193
  376 SOL   HW1     1172   -0.398799837    2.436369419   -0.705797851
  376 SOL   HW2     1173   -2.424270153    1.564450145   -1.653900743
  377 SOL   OW      1174   -0.138293520   -0.734480977   -0.081225768
  377 SOL   HW1     1175    0.636001110    1.380865455   -0.829769790
  377 SOL   HW2     1176   -1.478044987    3.009809017    0.565643609
  378 SOL   OW      1177   -0.321530342   -0.552006900   -0.536292732
  378 SOL   HW1     1178   -1.478861451    2.368335009   -1.434390306
  378 SOL   HW2     1179   -0.601754904   -0.748946309    0.019692082
  379 SOL   OW      1180    0.101080209   -0.641067922    0.415807962
  379 SOL   HW1     1181   -2.166544437    0.072192207    0.131966263
  379 SOL   HW2     1182    1.304512858   -1.269819379    2.936485767
  380 SOL   OW      1183    0.272006214   -0.279577792   -0.826957285
  380 SOL   HW1     1184   -3.087865353   -2.602616787   -3.216080427
  380 SOL   HW2     1185    2.556078434    1.046975017   -1.920328140
  381 SOL   OW      1186    0.227452308   -0.537405074    0.241183966
  381 SOL   HW1     1187    1.438380599   -1.414533854   -1.590700865
  381 SOL   HW2     1188   -0.569185078    1.031539202   -0.455125690
  382 SOL   OW      1189    0.537845016    0.427863210   -0.422907025
  382 SOL   HW1     1190    1.179118156   -1.433470726   -1.756838441
  382 SOL   HW2     1191    0.231982231   -0.674045205    1.303480744
  383 SOL   OW      1192   -0.163296372   -0.530136049    0.250971615
  383 SOL   HW1     1193    1.949295759   -0.470603287   -0.394752949
  383 SOL   HW2     1194   -1.146770239    0.009503134   -0.143728733
  384 SOL   OW      1195   -0.213908136    0.023115547    0.034425713
  384 SOL   HW1     1196   -0.192173436    0.673575282   -0.548473597
  384 SOL   HW2     1197    2.288672924   -1.669881821   -2.230543375
  385 SOL   OW      1198   -0.247670010   -0.460237265    0.488488883
  385 SOL   HW1     1199   -3.320488691    0.817704082    0.964336812
  385 SOL   HW2     1200    3.444741249   -0.170179516   -1.120895028
  386 SOL   OW      1201   -0.209110618   -0.175761759   -0.315584749
  386 SOL   HW1     1202   -1.602650881   -2.113681316   -0.007008855
  386 SOL   HW2     1203   -2.383135080   -1.583642602   -3.545737267
  387 SOL   OW      1204    0.524189055   -0.811669111   -0.402206630
  387 SOL   HW1     1205    1.415857792   -2.939367056    0.060454246
  387 SOL   HW2     1206   -0.536981463   -2.268897772   -1.541131020
  388 SOL   OW      1207   -0.153315127    0.205147788   -0.732368231
  388 SOL   HW1     1208    2.250842094   -0.950119555    1.431291938
  388 SOL   HW2     1209   -0.463342786    1.229351163   -0.559360981
  389 SOL   OW      1210    0.980038404    0.511951506   -0.041678164
  389 SOL   HW1     1211    0.571029246   -1.635562420    0.682143211
  389 SOL   HW2     1212   -0.421655834    0.346071213    0.033327121
  390 SOL   OW      1213    0.260771036    0.042627193    0.189264432
  390 SOL   HW1     1214    2.311027527   -4.714961529   -0.059956975
  390 SOL   HW2     1215   -1.401976705   -0.782907605    2.645902395
  391 SOL   OW      1216    0.531480491    0.216139138   -0.140884593
  391 SOL   HW1     1217    2.304655790    0.434950858    0.881325841
  391 SOL   HW2     1218   -3.216716051   -0.020172391   -3.722917080
  392 SOL   OW      1219   -0.177609727    0.052484978    0.105260201
  392 SOL   HW1     1220    1.399893880   -1.402464271    0.107714497
  392 SOL   HW2     1221    0.508997560    2.349856138    2.830722094
  393 SOL   OW      1222    0.377623439    0.154628888    0.109853715
  393 SOL   HW1     1223   -1.353564739    3.202873230   -0.323896945
  393 SOL   HW2     1224   -0.812621593   -1.336525202    1.014215827
  394 SOL   OW      1225   -0.187221467    0.003504546   -0.361115873
  394 SOL   HW1     1226   -0.133290723   -0.492677599   -2.206331491
  394 SOL   HW2     1227   -0.705338538   -2.730230808   -0.792429566
  395 SOL   OW      1228   -0.224015757   -0.212448075   -0.559632063
  395 SOL   HW1     1229   -1.456244707   -0.971344411    2.171234131
  395 SOL   HW2     1230   -1.420806646    0.093141489    0.211584419
  396 SOL   OW      1231   -0.391516179   -0.336883426   -0.047384508
  396 SOL   HW1     1232   -2.057537317   -1.372236490   -0.003788496
  396 SOL   HW2     1233    0.724125028    0.219002187   -1.702669978
  397 SOL   OW      1234   -0.613560140   -0.135523424   -0.025267078
  397 SOL   HW1     1235    1.562858462   -2.452001810    0.991192341
  397 SOL   HW2     1236    0.449168026   -3.117596865    1.731251717
  398 SOL   OW      1237   -0.095545053    0.500274897   -0.275516540
  398 SOL   HW1     1238   -1.437241316   -0.265112549   -0.807480276
  398 SOL   HW2     1239    0.450939626    0.160101578    1.251794934
  399 SOL   OW      1240    0.440544665    0.149514481   -0.219954565
  399 SOL   HW1     1241   -1.563167214   -1.557550192   -1.232919097
  399 SOL   HW2     1242    0.641181409    1.032057166   -0.033197690
  400 SOL   OW      1243    0.429359317    0.124574028    0.105378419
  400 SOL   HW1     1244   -0.656198502    1.388191581    2.778088808
  400 SOL   HW2     1245   -0.213813648    1.230346084   -1.373952627
  401 SOL   OW      1246    0.011147996    0.127319053    0.100501947
  401 SOL   HW1     1247   -0.514406681   -1.007437468   -0.378932565
  401 SOL   HW2     1248    1.444615006   -1.496538877    1.106498122
  402 SOL   OW      1249    0.450907826   -0.083455049   -0.259562731
  402 SOL   HW1     1250    1.910964847   -0.089247972    2.865989923
  402 SOL   HW2     1251   -3.983928204    0.038410023   -1.590535760
  403 SOL   OW      1252   -0.253316998   -0.476135463    0.365007430
  403 SOL   HW1     1253    0.432041109   -1.970194340    1.666830182
  403 SOL   HW2     1254   -0.630416393   -0.617784142   -3.065937042
  404 SOL   OW      1255   -0.138932958    0.336580813    0.275324613
  404 SOL   HW1     1256   -2.000299215    1.962846279   -1.337003827
  404 SOL   HW2     1257   -1.206749916   -2.960376740    0.140800878
  405 SOL   OW      1258    0.260004789    0.379909128   -0.335644603
  405 SOL   HW1     1259   -0.622341216    0.763281763   -5.414011478
  405 SOL   HW2     1260    2.160554171    0.768554866    1.284325004
  406 SOL   OW      1261   -0.399058014    0.020976685   -0.521334171
  406 SOL   HW1     1262   -2.050870657   -0.604060113   -1.595625401
  406 SOL   HW2     1263    0.022371659    0.526623905    1.794899583
  407 SOL   OW      1264   -0.080775611    0.469208747   -0.674270749
  407 SOL   HW1     1265   -0.616492271   -0.035196416   -1.275455236
  407 SOL   HW2     1266    0.177063927    0.088820294   -0.264144838
  408 SOL   OW      1267    0.006864812   -0.481723309    0.806553066
  408 SOL   HW1     1268   -2.358823538    1.370723486    1.046075344
  408 SOL   HW2     1269    0.122329950    0.071088165   -0.327867210
  409 SOL   OW      1270    0.002778529    0.391494900   -0.014101060
  409 SOL   HW1     1271    1.090326905   -1.326919436    1.876419425
  409 SOL   HW2     1272    0.944266260    0.855491817   -0.502176344
  410 SOL   OW      1273    0.172776580    0.054170799   -0.356320679
  410 SOL   HW1     1274   -0.004707745    0.185763374   -1.031774521
  410 SOL   HW2     1275    1.513039708   -1.437255383   -1.077454448
  411 SOL   OW      1276   -0.307960689    0.075910769   -0.387847900
  411 SOL   HW1     1277   -0.774148941    0.663483858    2.713385344
  411 SOL   HW2     1278   -1.667195916   -2.572478771   -2.789625406
  412 SOL   OW      1279    0.303016752    0.440752715    0.515715063
  412 SOL   HW1     1280    1.365396142   -3.008997679   -0.997252643
  412 SOL   HW2     1281    0.940828800   -2.442184687    1.695657849
  413 SOL   OW      1282   -0.735901415    0.068500213    0.350990981
  413 SOL   HW1     1283   -0.531264186    0.365613222    1.465930223
  413 SOL   HW2     1284    1.433220744    0.139082685    0.933721185
  414 SOL   OW      1285   -0.686995268    0.155925721    0.162948787
  414 SOL   HW1     1286   -0.460348636   -1.603824496    3.512045860
  414 SOL   HW2     1287   -0.283309519   -3.422078609    0.255824864
  415 SOL   OW      1288    0.564371049   -0.152865097    1.074335217
  415 SOL   HW1     1289   -0.305513978   -0.667875588    0.389166802
  415 SOL   HW2     1290   -0.639389038    2.393450022   -2.555438280
  416 SOL   OW      1291   -0.734346032    0.443258524    0.354856223
  416 SOL   HW1     1292    2.155008554   -3.165289402    2.596436739
  416 SOL   HW2     1293    1.135392547   -0.213292703    0.818776965
  417 SOL   OW      1294    0.129854217    0.180541202   -0.188385069
  417 SOL   HW1     1295    0.948967516   -1.792601466   -0.152490348
  417 SOL   HW2     1296   -0.152543828    1.413324952   -1.730864525
  418 SOL   OW      1297   -0.070295855   -0.060274940    0.260154605
  418 SOL   HW1     1298    1.991869807   -0.735978425    1.309457541
  418 SOL   HW2     1299    1.736570597   -0.930630028   -0.658963501
  419 SOL   OW      1300   -0.074523509    0.249023706    0.560630798
  419 SOL   HW1     1301   -0.705379605    0.909976006    3.077044010
  419 SOL   HW2     1302   -0.749187827    0.664161861   -1.747351646
  420 SOL   OW      1303   -0.051726114   -0.496110797   -0.498924762
  420 SOL   HW1     1304   -1.727081895   -3.544628859    1.438289404
  420 SOL   HW2     1305   -1.297097087    1.891148448    3.291341066
  421 SOL   OW      1306    0.274544954    0.225387901    0.528440416
  421 SOL   HW1     1307   -2.984015703   -0.148158014    4.635102272
  421 SOL   HW2     1308   -1.783203006   -1.434120774   -0.108355530
  422 SOL   OW      1309   -0.237916946    0.146018252   -0.501795769
  422 SOL   HW1     1310   -0.053253792   -1.097568989    0.054803632
  422 SOL   HW2     1311   -1.118441939    0.189171657   -0.028763656
  423 SOL   OW      1312    0.297642678    0.590819657    0.072928354
  423 SOL   HW1     1313    0.709725618   -0.427467138    0.663851142
  423 SOL   HW2     1314   -0.038905330   -2.607779264   -0.264564991
  424 SOL   OW      1315   -0.260409296   -0.039912574   -0.130239829
  424 SOL   HW1     1316   -2.612637281    0.783075392   -2.616523743
  424 SOL   HW2     1317   -1.517400146    0.247587323   -0.393134058
  425 SOL   OW      1318   -0.016091708   -0.083103769   -1.016990185
  425 SOL   HW1     1319    0.209607705   -0.711273611   -0.311017573
  425 SOL   HW2     1320    0.161516398    1.774260640    1.874286056
  426 SOL   OW      1321   -0.381039172    0.123661019   -0.231285200
  426 SOL   HW1     1322    1.512640357    0.213741198   -0.119070753
  426 SOL   HW2     1323   -1.454448938   -4.103033543   -0.006174296
  427 SOL   OW      1324    0.345541775   -0.309577614    0.012777658
  427 SOL   HW1     1325    0.615930080    1.384191513    0.036161639
  427 SOL   HW2     1326   -1.147688866   -0.224858671   -0.700580955
  428 SOL   OW      1327    0.014170118   -0.139803991   -0.078535773
  428 SOL   HW1     1328    0.507132709   -0.509310603    1.207870245
  428 SOL   HW2     1329   -0.792157114   -1.928984284    0.293926984
  429 SOL   OW      1330   -0.205184534   -0.706436574   -0.174676329
  429 SOL   HW1     1331    0.865115583   -3.407242298   -2.348237991
  429 SOL   HW2     1332   -0.907614827   -0.495536745    1.930644035
  430 SOL   OW      1333   -0.829696834    0.833041608    0.367374212
  430 SOL   HW1     1334    1.385655522    1.343653679    0.620738983
  430 SOL   HW2     1335   -1.824486375   -0.137509018   -0.638563156
  431 SOL   OW      1336    0.122245103   -0.513215125    0.075322203
  431 SOL   HW1     1337    2.313941240    0.200742394    1.608049512
  431 SOL   HW2     1338   -0.299809128    0.820255458    0.285942078
  432 SOL   OW      1339    0.062361896    0.611562073   -0.486429214
  432 SOL   HW1     1340    1.851680279    2.381736517   -0.246910647
  432 SOL   HW2     1341    0.469606936    0.518204808    0.187537402
  433 SOL   OW      1342   -0.732897162    0.189185560   -0.152081326
  433 SOL   HW1     1343   -0.662845612   -0.010369127   -1.096126199
  433 SOL   HW2     1344   -0.367493659    1.152396321   -0.606970489
  434 SOL   OW      1345    0.338254482    0.773742557    0.119991235
  434 SOL   HW1     1346   -1.773160458    0.358519584   -0.245427996
  434 SOL   HW2     1347    1.323740840   -0.523792446    2.855005503
  435 SOL   OW      1348    0.127867639   -0.556058407   -0.093568936
  435 SOL   HW1     1349   -2.055705547   -0.613152981    1.438718557
  435 SOL   HW2     1350    0.608044982    1.701862931   -2.337425470
  436 SOL   OW      1351    0.612057745    0.078021362   -0.112035535
  436 SOL   HW1     1352    0.757689297   -0.109826133    1.303165793
  436 SOL   HW2     1353   -1.254224658    1.300823689   -0.012919304
  437 SOL   OW      1354    0.751202703    0.492758662   -0.055824034
  437 SOL   HW1     1355   -1.528309822   -0.784835458    0.843597114
  437 SOL   HW2     1356   -1.397650719   -1.340804100    3.335615158
  438 SOL   OW      1357   -0.164732635   -0.241939738   -0.065026321
  438 SOL   HW1     1358   -0.160404652   -0.758578837    1.269667387
  438 SOL   HW2     1359    1.589044213    0.429089487    1.754853487
  439 SOL   OW      1360   -0.933004141    0.481094092   -0.635465920
  439 SOL   HW1     1361   -2.066533804    0.694615066    0.433566689
  439 SOL   HW2     1362   -0.072234847   -1.475351453   -1.940282226
  440 SOL   OW      1363   -0.127156809    0.283281386    0.670054257
  440 SOL   HW1     1364    1.302283525    0.813457429   -0.347226799
  440 SOL   HW2     1365    0.899790883    1.475034952   -2.838052750
  441 SOL   OW      1366    0.100888632   -0.071401171    0.010479025
  441 SOL   HW1     1367    0.427986205   -0.534215391    0.393988013
  441 SOL   HW2     1368   -0.427795500   -0.737010777    0.551621854
  442 SOL   OW      1369    0.168471590    0.161927283    0.207532063
  442 SOL   HW1     1370   -0.626183331   -0.601554990   -0.118401468
  442 SOL   HW2     1371   -1.067199588    2.332618475   -0.569148481
  443 SOL   OW      1372    0.814694345    0.795522630   -0.100098595
  443 SOL   HW1     1373    1.163475633   -1.489766359    0.323486149
  443 SOL   HW2     1374   -1.292903304   -1.623899817    0.734661937
  444 SOL   OW      1375   -0.076794751    0.021410760   -0.095908426
  444 SOL   HW1     1376   -1.424894094   -0.074644215   -2.462935209
  444 SOL   HW2     1377   -0.254773378    2.448392868   -0.046589591
  445 SOL   OW      1378   -0.524653196   -0.132645458    0.147017658
  445 SOL   HW1     1379   -1.256061792   -0.801978588   -1.297310829
  445 SOL   HW2     1380   -2.187927961    2.413944483   -0.480665475
  446 SOL   OW      1381    0.412269533    0.119631201    0.264082968
  446 SOL   HW1     1382   -1.436074853    0.862487257    0.826888978
  446 SOL   HW2     1383   -0.219820544   -0.956810713    2.703795671
  447 SOL   OW      1384    0.411238521    0.030197859    0.112608053
  447 SOL   HW1     1385    1.090721726    2.270956993    0.123870410
  447 SOL   HW2     1386    1.035158396   -1.293964624   -1.434737682
  448 SOL   OW      1387    0.011630178    0.056072276   -0.362386018
  448 SOL   HW1     1388    0.343188137    2.163191795    1.506967306
  448 SOL   HW2     1389   -1.079551339    0.951355994    1.570701480
  449 SOL   OW      1390   -0.134113520    0.632608712   -0.505055428
  449 SOL   HW1     1391   -0.592936993    4.074085236   -0.784673393
  449 SOL   HW2     1392   -1.411663771    0.763067365   -0.472410232
  450 SOL   OW      1393   -0.538458109    0.356968135    0.079508260
  450 SOL   HW1     1394    3.384552956    0.015954796    1.626815438
  450 SOL   HW2     1395   -0.216330260   -2.457630634    1.731268764
  451 SOL   OW      1396    0.548404217   -0.215915561   -0.130452484
  451 SOL   HW1     1397   -1.994939804   -0.333132923   -0.520019352
  451 SOL   HW2     1398    1.131437182   -3.450844526   -2.226926804
  452 SOL   OW      1399   -0.651883543    0.507116795   -0.280167103
  452 SOL   HW1     1400    2.154030323    1.528942943    2.120032549
  452 SOL   HW2     1401   -0.289299428   -0.857745767    1.029914618
  453 SOL   OW      1402    0.258026272   -0.126486629   -0.032782696
  453 SOL   HW1     1403    4.623415470    1.510830164    0.765184224
  453 SOL   HW2     1404    0.157751471    1.751550555   -1.179768205
  454 SOL   OW      1405   -0.617935181   -0.486374617   -0.462960780
  454 SOL   HW1     1406    1.204824090    0.247537225    0.180644765
  454 SOL   HW2     1407   -0.887619793    1.950989246   -0.026532214
  455 SOL   OW      1408   -0.167880103    0.394575924   -0.454657167
  455 SOL   HW1     1409    0.019948233    1.565898538    2.205246210
  455 SOL   HW2     1410   -4.630346775   -1.001476049    0.276595503
  456 SOL   OW      1411   -0.627690554    0.204168975   -0.163240477
  456 SOL   HW1     1412    1.422857285   -0.127076626    1.438723922
  456 SOL   HW2     1413    0.921360433    0.228315428   -1.039604187
  457 SOL   OW      1414   -0.750311852    0.318435192   -0.334425688
  457 SOL   HW1     1415   -0.123272993   -1.611638069   -1.643801928
  457 SOL   HW2     1416    0.168845028   -2.117119551    0.003764630
  458 SOL   OW      1417    0.475354791    0.195823386   -0.122846961
  458 SOL   HW1     1418    2.770487547   -1.335050583   -1.636388063
  458 SOL   HW2     1419    0.790953994   -2.149954796   -0.891539812
  459 SOL   OW      1420   -0.276045084   -0.128613144    0.166803569
  459 SOL   HW1     1421    2.336085081    0.393915296   -1.801644325
  459 SOL   HW2     1422    0.555312157   -1.073616266   -1.734676957
  460 SOL   OW      1423    0.445139378   -0.450915903   -0.152912840
  460 SOL   HW1     1424    0.849882662    0.828238487    0.045092288
  460 SOL   HW2     1425   -0.523535490    0.309596419   -1.695014238
  461 SOL   OW      1426    0.849299908   -0.103187241    0.620180726
  461 SOL   HW1     1427    0.524904847   -2.656126022    1.577664852
  461 SOL   HW2     1428    2.411508799    0.235785276   -2.712678194
  462 SOL   OW      1429   -0.322713703    0.527406812   -0.186280519
  462 SOL   HW1     1430   -2.666852474    0.419256717   -0.063756704
  462 SOL   HW2     1431   -0.138459563   -0.264685214   -0.459505975
  463 SOL   OW      1432   -0.240211353    0.605070770    0.690366209
  463 SOL   HW1     1433   -0.849007428    1.171624064    1.520400286
  463 SOL   HW2     1434    1.447021246   -0.203270465   -0.375973612
  464 SOL   OW      1435    0.181386560    0.688257396   -0.443057209
  464 SOL   HW1     1436    1.184347391   -2.049156189   -1.643843412
  464 SOL   HW2     1437    0.590961218    0.289231688   -2.061882257
  465 SOL   OW      1438   -0.341659606   -0.405708194   -0.239002958
  465 SOL   HW1     1439   -1.449165821    1.040189862    1.086676598
  465 SOL   HW2     1440    2.460577726   -0.230313301    0.836949706
  466 SOL   OW      1441   -0.105682269   -0.516507566   -0.004516153
  466 SOL   HW1     1442    0.167241678    1.549401999    0.138365462
  466 SOL   HW2     1443   -0.602126658    0.191439152    1.640381098
  467 SOL   OW      1444    0.061020687   -0.594801009   -0.492362231
  467 SOL   HW1     1445    2.044370651   -0.065580383   -2.061690569
  467 SOL   HW2     1446   -0.133525476   -0.750438750   -2.027920246
  468 SOL   OW      1447   -0.205985427   -0.002036234   -0.616406024
  468 SOL   HW1     1448    3.415450811   -0.077675231   -2.885605574
  468 SOL   HW2     1449    3.116265774    0.217466593    2.203710079
  469 SOL   OW      1450   -0.449280560    0.093636453   -0.374548942
  469 SOL   HW1     1451    0.535396039   -2.096877337   -0.775982261
  469 SOL   HW2     1452   -0.953449845   -1.172326446    0.302012861
  470 SOL   OW      1453    0.241460294    0.233539745    0.262219667
  470 SOL   HW1     1454   -1.463226676   -0.481230736   -0.269943535
  470 SOL   HW2     1455    1.516190886    2.255674839   -0.200881436
  471 SOL   OW      1456   -0.243896171   -0.186055154    0.144873038
  471 SOL   HW1     1457    0.213415414    0.736920595   -1.107631683
  471 SOL   HW2     1458   -0.769209445    1.396453381    0.093858302
  472 SOL   OW      1459   -0.075875364   -1.132928252   -0.260230184
  472 SOL   HW1     1460    0.110396951    0.794808567   -1.802369237
  472 SOL   HW2     1461    1.375766039    0.026860455    0.169415280
  473 SOL   OW      1462   -0.097754605    0.767339110    0.370178044
  473 SOL   HW1     1463    0.525672913   -0.547808707    0.988387704
  473 SOL   HW2     1464    0.607996941   -2.254721880    0.699266791
  474 SOL   OW      1465    0.015822358    0.721315145    0.161776245
  474 SOL   HW1     1466    2.782936096   -4.870372295    0.365562946
  474 SOL   HW2     1467    1.154499650   -0.981985807    2.997450829
  475 SOL   OW      1468    0.013784468   -0.300814986    0.661709905
  475 SOL   HW1     1469   -3.057215214    0.232024252   -1.186056614
  475 SOL   HW2     1470    1.647500396   -0.505156815    0.591297328
  476 SOL   OW      1471    0.227773026   -0.083506994    0.466891825
  476 SOL   HW1     1472    0.624438286    3.661419153    1.309348106
  476 SOL   HW2     1473    0.632157445   -1.190884233   -0.886099160
  477 SOL   OW      1474    0.280167133   -0.498419046    0.034892574
  477 SOL   HW1     1475    0.182596877    1.445868850    0.822655261
  477 SOL   HW2     1476   -0.652217269    1.077170491   -0.371183068
  478 SOL   OW      1477    0.032486662   -0.488846928    1.047124982
  478 SOL   HW1     1478    0.554509401   -2.602531195   -0.056795683
  478 SOL   HW2     1479    2.650304556   -2.064708948   -1.800598145
  479 SOL   OW      1480   -0.067965165    0.320929289   -0.308968425
  479 SOL   HW1     1481    0.624838948    0.636258125    0.583523273
  479 SOL   HW2     1482    0.204501033   -1.117421985   -0.059119243
  480 SOL   OW      1483   -0.448638141    0.972786307    0.359441102
  480 SOL   HW1     1484    0.879527092   -0.586269915    0.315482080
  480 SOL   HW2     1485    1.844609976   -0.422170192    0.003603190
  481 SOL   OW      1486    0.274061114   -0.250505567   -0.389801204
  481 SOL   HW1     1487   -0.931682765   -1.652105570    0.319302648
  481 SOL   HW2     1488    1.219725251    0.919207633    0.616425037
  482 SOL   OW      1489    0.399196565   -0.190792769   -0.217357114
  482 SOL   HW1     1490   -0.095674321    0.936091542   -2.355743647
  482 SOL   HW2     1491   -2.479279280    0.626253724    0.902643859
  483 SOL   OW      1492    0.826664865   -0.156891525    0.326446503
  483 SOL   HW1     1493    1.409105301   -0.178990230   -1.805633187
  483 SOL   HW2     1494   -0.564530551    0.741423309    2.476760626
  484 SOL   OW      1495    0.386061221    0.448795676    0.260581017
  484 SOL   HW1     1496    1.644242525    1.953776479   -0.706015408
  484 SOL   HW2     1497    0.015596037   -3.436582088    2.312003374
  485 SOL   OW      1498    0.342062533    0.297537208   -0.475855112
  485 SOL   HW1     1499   -0.166445717   -2.371913910    1.190264225
  485 SOL   HW2     1500   -0.633850813    1.192163587   -1.147963881
  486 SOL   OW      1501    0.144748047   -0.104624249   -0.120424688
  486 SOL   HW1     1502    1.485448718   -1.336933732   -0.036220007
  486 SOL   HW2     1503   -0.293852448   -1.738257885   -2.946089745
  487 SOL   OW      1504   -0.459636122   -0.007001526   -0.414806038
  487 SOL   HW1     1505   -1.021972418    1.566335440    0.629009008
  487 SOL   HW2     1506    1.667198062   -2.770354986    2.584201336
  488 SOL   OW      1507    0.131885096    0.115176938   -0.049305893
  488 SOL   HW1     1508   -0.205691978   -1.926087737    0.881145597
  488 SOL   HW2     1509   -2.817623615    2.877317429    0.671699464
  489 SOL   OW      1510    1.087522388    0.165267527   -0.200058699
  489 SOL   HW1     1511    0.003671195    3.581944466   -0.850075364
  489 SOL   HW2     1512    1.470079303    0.663123131    2.764377117
  490 SOL   OW      1513    0.140854225   -0.185026184    0.910246849
  490 SOL   HW1     1514   -0.353549063    1.589896679   -0.329773128
  490 SOL   HW2     1515   -1.573525548   -0.469228357   -0.697698355
  491 SOL   OW      1516   -0.048470780    0.162708476   -0.128472462
  491 SOL   HW1     1517   -2.057595968    1.984859347   -0.737973928
  491 SOL   HW2     1518    0.603836596    1.009144664    2.306273460
  492 SOL   OW      1519   -0.355508298    0.662901044   -0.501741350
  492 SOL   HW1     1520    1.982839942   -0.586097419    1.454302549
  492 SOL   HW2     1521    1.157761693    1.751942873   -0.342846990
  493 SOL   OW      1522    0.062555581   -0.272693336    0.108976088
  493 SOL   HW1     1523   -0.425686121    1.484139323    2.174583197
  493 SOL   HW2     1524    1.811944246   -0.691053152   -0.095310286
  494 SOL   OW      1525   -0.129378781   -0.201330543   -0.494988859
  494 SOL   HW1     1526   -3.073842287   -1.149870276    0.951412678
  494 SOL   HW2     1527    0.204013854    0.639008045   -0.553186357
  495 SOL   OW      1528   -0.018204769   -0.745904744   -0.675042927
  495 SOL   HW1     1529    1.880886078    0.146280631    2.050497293
  495 SOL   HW2     1530   -1.312562108   -1.460410357    1.540421724
  496 SOL   OW      1531   -0.454389691   -0.915714324    0.406571835
  496 SOL   HW1     1532    0.542733133    0.211951911    1.917437792
  496 SOL   HW2     1533    0.624504328   -2.075223684   -3.115816593
  497 SOL   OW      1534   -0.445792198   -0.244282380    0.022317594
  497 SOL   HW1     1535   -0.576692641   -2.131658316   -2.170192242
  497 SOL   HW2     1536   -0.672160983    0.948483467    0.959380507
  498 SOL   OW      1537   -0.028624704    0.085653134   -0.019853875
  498 SOL   HW1     1538   -0.095614217   -2.341706038   -0.143215641
  498 SOL   HW2     1539   -0.466685206   -0.388772190    1.196489334
  499 SOL   OW      1540    0.067664608    0.227642581    0.038727369
  499 SOL   HW1     1541    1.888303876    1.334013939    1.738548398
  499 SOL   HW2     1542    0.835269570    1.796635628   -0.989706635
  500 SOL   OW      1543    0.075715303    0.389997602   -0.720361948
  500 SOL   HW1     1544   -0.878384769    0.523948550   -0.130614623
  500 SOL   HW2     1545   -0.319748342    0.991219938    0.593976498
  501 SOL   OW      1546   -0.098149754    0.343358934   -0.270515472
  501 SOL   HW1     1547    0.341021627   -2.063565016    3.436213493
  501 SOL   HW2     1548    0.338741839   -1.759521723    2.385262012
  502 SOL   OW      1549   -0.320703745    0.051887102   -0.303412020
  502 SOL   HW1     1550   -0.823683083    0.662211478   -0.861455619
  502 SOL   HW2     1551   -0.450769365    0.466775715    0.658630311
  503 SOL   OW      1552   -0.189949080    0.693824768   -0.187117085
  503 SOL   HW1     1553    2.456928492   -0.125936314   -0.110521600
  503 SOL   HW2     1554    0.992926300    0.875244856    0.445485950
  504 SOL   OW      1555    0.278401315   -0.472635120   -0.117227204
  504 SOL   HW1     1556    2.034463406   -1.720209241    1.760845184
  504 SOL   HW2     1557    1.466748476   -1.602393985   -0.153255731
  505 SOL   OW      1558    0.186082974    0.537196159   -0.395640790
  505 SOL   HW1     1559   -1.212480068   -1.878726125   -1.282397270
  505 SOL   HW2     1560    0.679929912   -0.851037681    0.380755633
  506 SOL   OW      1561    0.247345835   -0.775305092   -0.147757694
  506 SOL   HW1     1562    1.543052673   -0.342843294   -1.275763273
  506 SOL   HW2     1563    0.395362645    0.960795343   -0.481000423
  507 SOL   OW      1564    0.047932185    0.244143650    0.746991932
  507 SOL   HW1     1565    1.086211562   -0.358079374   -0.674933255
  507 SOL   HW2     1566    3.045710564   -0.866643965    0.739261031
  508 SOL   OW      1567    0.381710172    0.843264997   -0.321355462
  508 SOL   HW1     1568   -0.098291337   -1.197404027   -0.660318971
  508 SOL   HW2     1569    0.504650950    0.958983123   -2.461074829
  509 SOL   OW      1570   -0.008154005    0.179819927    0.110318497
  509 SOL   HW1     1571   -2.236258745    3.566453457   -2.595211506
  509 SOL   HW2     1572   -2.228319168   -1.090807199    0.197822273
  510 SOL   OW      1573   -0.458893836   -0.338410079   -0.087837659
  510 SOL   HW1     1574    1.789389133   -0.643753171    0.272527486
  510 SOL   HW2     1575   -0.802091360    0.217524871   -1.888412356
  511 SOL   OW      1576   -0.049304835    0.189073429   -0.348427385
  511 SOL   HW1     1577    1.758980274   -0.882470310    0.324850649
  511 SOL   HW2     1578    1.084591389    0.083827995   -0.551642001
  512 SOL   OW      1579   -0.219292417    0.076725625   -0.886683226
  512 SOL   HW1     1580   -0.437670410    1.536132455   -0.578234911
  512 SOL   HW2     1581   -0.577190936    0.278833836    1.423189998
  513 SOL   OW      1582    0.169641390   -0.736049056    0.165943071
  513 SOL   HW1     1583    1.827307463    0.445213765   -0.421948910
  513 SOL   HW2     1584   -1.473487020   -0.107543416   -1.457250595
  514 SOL   OW      1585   -0.054887466   -0.132038787   -0.601123273
  514 SOL   HW1     1586   -0.609987438   -0.768619299   -0.872184575
  514 SOL   HW2     1587    0.684467018   -1.641084433    0.746836543
  515 SOL   OW      1588    0.413908690   -0.798760474   -0.103335686
  515 SOL   HW1     1589    0.728965223   -0.899777532   -0.224657819
  515 SOL   HW2     1590   -1.997829914   -1.176066160    0.266742349
  516 SOL   OW      1591    0.058641355    0.983526707   -0.291754812
  516 SOL   HW1     1592   -3.170392752    0.660058916   -0.049063269
  516 SOL   HW2     1593    1.222234368   -3.265564442    0.357319117
  517 SOL   OW      1594    0.323646754    0.017095689    0.099872962
  517 SOL   HW1     1595   -0.216662660   -1.152447104    2.151445389
  517 SOL   HW2     1596    0.801021338    2.481381655   -0.089814723
  518 SOL   OW      1597   -0.403795749    0.241628796   -0.278844982
  518 SOL   HW1     1598   -1.218126535   -1.043119431   -3.826573372
  518 SOL   HW2     1599   -0.477682710    4.075493813   -1.529502749
  519 SOL   OW      1600   -0.043593381   -0.011761740   -0.046968915
  519 SOL   HW1     1601    3.018807411   -0.996923327   -1.771091342
  519 SOL   HW2     1602   -0.132834181    2.246939182   -1.732375979
  520 SOL   OW      1603    0.602301061    0.776649833   -0.238116980
  520 SOL   HW1     1604    0.005843992   -1.700747490   -0.683061898
  520 SOL   HW2     1605   -1.756188631    1.867735744    0.470332384
  521 SOL   OW      1606    0.740094304    0.336172372    0.479681313
  521 SOL   HW1     1607    0.553543389   -0.010969493    0.836249173
  521 SOL   HW2     1608    0.819814265   -2.240531206    0.477327496
  522 SOL   OW      1609    0.588601708    0.167897671   -0.166279659
  522 SOL   HW1     1610    0.487187356    0.691770554   -0.603650928
  522 SOL   HW2     1611   -1.382625937    1.100158691   -0.186615229
  523 SOL   OW      1612    0.165769055   -0.107069835    0.616727352
  523 SOL   HW1     1613   -0.366345078   -0.986953616   -1.047164917
  523 SOL   HW2     1614    0.571095228    1.736195922    1.413563490
  524 SOL   OW      1615    0.199275076   -0.295644015    0.882873416
  524 SOL   HW1     1616    1.712249279   -1.022874951   -0.914227605
  524 SOL   HW2     1617   -0.685249209    0.297581047   -0.519270778
  525 SOL   OW      1618    0.235409379   -1.085422635    0.472681701
  525 SOL   HW1     1619   -1.721379995    0.544253826    0.698973715
  525 SOL   HW2     1620    2.545322657    1.707570553   -0.809155047
  526 SOL   OW      1621   -0.773681819   -0.219627887   -0.017328229
  526 SOL   HW1     1622   -1.564080834    0.505435467    2.102066755
  526 SOL   HW2     1623    0.033348709   -0.321858048    1.531990290
  527 SOL   OW      1624   -0.597316682   -0.070804819    0.549420714
  527 SOL   HW1     1625   -2.876160145    0.792077720    2.585853100
  527 SOL   HW2     1626    1.644254088    0.638156772    0.388139516
  528 SOL   OW      1627    0.015039456   -0.009423886    0.358806729
  528 SOL   HW1     1628   -1.324044108    3.215269804    0.107038222
  528 SOL   HW2     1629   -0.837245882   -0.215324402    0.253600657
  529 SOL   OW      1630    0.696811974    0.618072987    0.366920054
  529 SOL   HW1     1631   -1.536395192   -0.411309421    3.633475065
  529 SOL   HW2     1632   -3.576593399    2.261966228    1.332946658
  530 SOL   OW      1633    0.068786174    0.685617030    0.073831037
  530 SOL   HW1     1634   -0.885568380    0.701296329    0.257019699
  530 SOL   HW2     1635    2.840982437    0.279481649   -0.440108806
  531 SOL   OW      1636   -0.251962453    0.123622254   -0.221006617
  531 SOL   HW1     1637    0.799592674   -1.488559246    0.907428920
  531 SOL   HW2     1638    4.391224384    0.022013118   -1.317759037
  532 SOL   OW      1639    0.733367741   -0.387986720   -0.255579859
  532 SOL   HW1     1640    3.377142429   -1.148704171    2.218473434
  532 SOL   HW2     1641   -0.704503417    2.702509642    4.060209274
  533 SOL   OW      1642   -0.050545793    0.451643050    0.078663424
  533 SOL   HW1     1643   -3.839416027    1.759278297   -2.357756615
  533 SOL   HW2     1644    1.547115922    0.277224272   -1.181708455
  534 SOL   OW      1645    0.240468532    0.221764669   -0.546491683
  534 SOL   HW1     1646    0.520000875   -0.382867694   -0.577861249
  534 SOL   HW2     1647   -0.125656530    1.855200648    1.706449628
  535 SOL   OW      1648    0.396322966   -0.871092260   -0.669413090
  535 SOL   HW1     1649    2.135239840   -2.319432259   -0.727942526
  535 SOL   HW2     1650    0.491697907    0.424631029   -0.214145511
  536 SOL   OW      1651   -0.343753994   -0.184415817    0.143946782
  536 SOL   HW1     1652   -0.548827231    0.090616971   -0.741830647
  536 SOL   HW2     1653    0.840216994    1.712518930    1.511195540
  537 SOL   OW      1654    0.230875075    0.309866309    0.219997257
  537 SOL   HW1     1655    0.218431085    0.553509533   -1.381121993
  537 SOL   HW2     1656   -0.772804677   -1.646066666    3.351374149
  538 SOL   OW      1657   -0.056049958   -0.026519807    0.722183764
  538 SOL   HW1     1658    0.110147692   -2.107088804   -2.117282391
  538 SOL   HW2     1659   -0.835389316    0.281678319   -0.066014543
  539 SOL   OW      1660   -0.561193526   -0.105739072   -0.668579340
  539 SOL   HW1     1661    0.159171224    2.596196175   -0.039727636
  539 SOL   HW2     1662    0.848857820   -2.006871462    3.991695642
  540 SOL   OW      1663   -0.424938142    0.018122515   -0.018646151
  540 SOL   HW1     1664    1.691904187    2.252258539   -1.411786556
  540 SOL   HW2     1665   -1.555302620    1.238193154    1.622994065
  541 SOL   OW      1666   -0.097262278    0.056123354    0.082447723
  541 SOL   HW1     1667   -2.651967049    1.354271293    1.888331771
  541 SOL   HW2     1668   -0.560966313    1.480366468   -0.489954412
  542 SOL   OW      1669    0.191077963   -0.182117686   -0.286235273
  542 SOL   HW1     1670    0.874750078    0.459987760   -0.621750772
  542 SOL   HW2     1671    2.691113234   -0.315030932    0.695219100
  543 SOL   OW      1672   -0.744529188    0.192068845    0.320018142
  543 SOL   HW1     1673   -2.868419647   -0.034236129    2.239614010
  543 SOL   HW2     1674    3.354184151   -1.431049109   -3.375476837
  544 SOL   OW      1675    0.172524408    0.322721541    0.450970501
  544 SOL   HW1     1676    0.433359355    2.680908680   -1.558202624
  544 SOL   HW2     1677    2.889531851    0.575678527   -1.589634895
  545 SOL   OW      1678    0.296948642   -0.127387047   -0.319923729
  545 SOL   HW1     1679   -1.876244187   -0.614799261   -2.056876421
  545 SOL   HW2     1680   -0.728941977   -0.328005642   -0.778839350
  546 SOL   OW      1681   -0.383161545   -0.571388900    0.292921454
  546 SOL   HW1     1682   -1.947309852    1.416316986    2.012073994
  546 SOL   HW2     1683   -1.929307103   -2.738532543    0.008555896
  547 SOL   OW      1684   -0.327321440   -0.073920675    0.012195352
  547 SOL   HW1     1685   -2.325864792   -1.528645158    0.824572146
  547 SOL   HW2     1686    0.023763893    1.507965446    2.128656149
  548 SOL   OW      1687    0.190490156   -0.069912396   -0.208649442
  548 SOL   HW1     1688   -0.759796083   -0.719264507    2.166911364
  548 SOL   HW2     1689    1.042263150    1.853752971   -0.347899944
  549 SOL   OW      1690   -0.406155437   -0.617659986    0.049872175
  549 SOL   HW1     1691   -0.018221756    1.179641366    0.178229585
  549 SOL   HW2     1692    1.013096333    0.053061154   -1.233118057
  550 SOL   OW      1693   -0.222411543   -0.189363122    0.109529540
  550 SOL   HW1     1694    2.295792341    0.537602007   -0.007279000
  550 SOL   HW2     1695    3.584033489    2.432675838   -0.417305410
  551 SOL   OW      1696   -0.170981511   -0.254229546   -0.052822843
  551 SOL   HW1     1697   -0.924078703   -1.133169770    4.632262707
  551 SOL   HW2     1698   -1.340597391   -0.706539094   -2.670209169
  552 SOL   OW      1699    0.362337589    0.007486728   -0.402012080
  552 SOL   HW1     1700    2.015057325    0.282570928   -2.029442549
  552 SOL   HW2     1701   -0.002165586   -1.060516119    1.532216072
  553 SOL   OW      1702    0.094495617    0.576975942    0.539873958
  553 SOL   HW1     1703   -2.273620129    2.000876427   -1.295200944
  553 SOL   HW2     1704   -1.196748495    2.436722755    2.560312748
  554 SOL   OW      1705   -0.698499203    0.356652975   -0.675860047
  554 SOL   HW1     1706    1.629982829    0.585377038   -1.848672390
  554 SOL   HW2     1707   -1.877985716   -1.140837431    2.009116173
  555 SOL   OW      1708   -0.935504675    0.005025353   -0.078030340
  555 SOL   HW1     1709   -1.316364169    0.440846324    3.734780073
  555 SOL   HW2     1710   -2.291909218    1.180573225   -0.057935473
  556 SOL   OW      1711    0.250627875    0.165267766   -0.094021522
  556 SOL   HW1     1712   -1.951991320    1.717222214   -0.221276835
  556 SOL   HW2     1713   -1.785216331   -2.821125984   -0.889537454
  557 SOL   OW      1714   -0.839193881    0.227293551    0.660892367
  557 SOL   HW1     1715    2.046256781   -0.308376908   -0.758346379
  557 SOL   HW2     1716    0.366411269    2.070666075    1.064959884
  558 SOL   OW      1717   -0.090226032    0.131784245    0.511276424
  558 SOL   HW1     1718   -0.182479411   -1.201897860   -1.581020355
  558 SOL   HW2     1719    2.458661556    1.100579858    1.300800920
  559 SOL   OW      1720    0.043537471    0.739636838    0.669697225
  559 SOL   HW1     1721    2.848106384   -3.389895201   -2.643019199
  559 SOL   HW2     1722    1.395370245    1.391644001    1.247535229
  560 SOL   OW      1723   -0.150426626    0.049595136   -0.169870213
  560 SOL   HW1     1724   -1.464186788    1.457090735   -1.164996862
  560 SOL   HW2     1725   -0.549348712    0.676127791    0.294317394
  561 SOL   OW      1726   -0.114833646   -0.342636108   -0.805839837
  561 SOL   HW1     1727    0.101735197   -0.823086739   -1.125779748
  561 SOL   HW2     1728    0.623749256   -1.826920033   -0.142680183
  562 SOL   OW      1729   -0.199703977   -0.161760554   -0.149950340
  562 SOL   HW1     1730    1.378851533   -1.515741348    1.590710521
  562 SOL   HW2     1731   -0.307769597    0.329993606    0.365740508
  563 SOL   OW      1732    0.518955886    0.031192433   -1.063287973
  563 SOL   HW1     1733    0.076601245   -0.698002100    1.920422912
  563 SOL   HW2     1734    0.460300386   -3.938004255    0.436871320
  564 SOL   OW      1735    0.104289375   -0.117784590   -0.300632536
  564 SOL   HW1     1736   -1.582036972   -2.276382446   -0.782833040
  564 SOL   HW2     1737   -0.099788345    0.762836516   -1.335477471
  565 SOL   OW      1738   -0.542487681    0.401411355    0.343466580
  565 SOL   HW1     1739    1.809409380    0.179864258   -1.224517107
  565 SOL   HW2     1740    2.393525600    1.507860303    0.874319494
  566 SOL   OW      1741    0.195085838    0.269445390    0.072387964
  566 SOL   HW1     1742   -1.187088370    0.737177253   -1.078371167
  566 SOL   HW2     1743   -0.651919246   -2.075314045   -1.013206720
  567 SOL   OW      1744   -0.097141780    0.373286426   -0.237011775
  567 SOL   HW1     1745   -1.897390604    1.431290388   -3.992738008
  567 SOL   HW2     1746    1.519655585   -0.363361508   -0.400228888
  568 SOL   OW      1747    0.248723939    0.211217836   -0.118660472
  568 SOL   HW1     1748   -4.160297871    1.225537896   -1.554577589
  568 SOL   HW2     1749   -0.996035159   -3.033400297    0.667940259
  569 SOL   OW      1750    0.822043002   -0.127703995    0.083739340
  569 SOL   HW1     1751    1.302772284   -0.163801849   -0.217665821
  569 SOL   HW2     1752   -0.034564327   -2.154789448    0.138680354
  570 SOL   OW      1753   -0.279827058    0.089730091    0.054327313
  570 SOL   HW1     1754    0.710628569    0.091190651   -0.273278356
  570 SOL   HW2     1755   -1.429877281   -0.495367736   -1.010784030
  571 SOL   OW      1756    0.239348054    0.272395700   -0.754368484
  571 SOL   HW1     1757   -0.581599057   -0.609097779    1.510138035
  571 SOL   HW2     1758   -1.522586107    1.054678440    0.306613743
  572 SOL   OW      1759   -0.398269087   -0.006460951   -0.030690914
  572 SOL   HW1     1760    0.905180514   -2.121659279   -2.294857264
  572 SOL   HW2     1761    3.508441925    1.250189900    1.517539620
  573 SOL   OW      1762    0.235647023    0.009986324   -0.067417361
  573 SOL   HW1     1763   -2.369805574   -1.330235839   -0.605251789
  573 SOL   HW2     1764    0.274063230    0.976465762    1.441469193
  574 SOL   OW      1765    0.068051577    0.453466356   -0.527122974
  574 SOL   HW1     1766   -1.756917357    1.285787821   -1.235545278
  574 SOL   HW2     1767   -2.943407536    0.605883420   -0.999405146
  575 SOL   OW      1768    0.344926953   -0.058454782    0.511649311
  575 SOL   HW1     1769   -1.518485546    0.393507630   -1.442344189
  575 SOL   HW2     1770    0.117476895    0.784741879   -2.566124916
  576 SOL   OW      1771    0.212981969    0.074868806   -0.115849383
  576 SOL   HW1     1772    1.272938490    1.173719287   -0.385965198
  576 SOL   HW2     1773    2.579365253    2.841986179   -3.706268072
  577 SOL   OW      1774   -1.229287863   -0.127641276   -0.368560195
  577 SOL   HW1     1775   -0.356685549    1.560747623   -0.251921535
  577 SOL   HW2     1776   -2.794396162    4.017941952    4.094727039
  578 SOL   OW      1777    0.009601082    0.088482030    0.218620434
  578 SOL   HW1     1778    0.534639657   -1.791094780    0.788520038
  578 SOL   HW2     1779    1.315928340    0.496009171   -0.484915167
  579 SOL   OW      1780    0.334920883    0.432025909    0.085085593
  579 SOL   HW1     1781    1.404895663    1.710513353    0.558669925
  579 SOL   HW2     1782   -0.622169495   -1.450154781    2.737386942
  580 SOL   OW      1783   -0.016677262   -0.182601020    0.062080201
  580 SOL   HW1     1784    0.993831754    3.082020044   -2.388191700
  580 SOL   HW2     1785    0.203668043   -0.312852293    0.346778363
  581 SOL   OW      1786    0.042049374    0.470837176   -0.437978208
  581 SOL   HW1     1787    3.556291819    1.317761540    1.423521638
  581 SOL   HW2     1788    0.140931144   -0.932854474    0.763544261
  582 SOL   OW      1789    0.113700427    0.722296119    0.086780906
  582 SOL   HW1     1790    1.906352997   -0.059281714   -1.827471375
  582 SOL   HW2     1791    1.007500648    0.992051840    0.627911270
  583 SOL   OW      1792    0.325057775   -0.221827343   -0.054481287
  583 SOL   HW1     1793    1.285067439   -0.139651403    0.636015296
  583 SOL   HW2     1794    3.186534166   -0.790331781    4.241199493
  584 SOL   OW      1795   -0.383268654   -0.384389937    0.434192389
  584 SOL   HW1     1796    2.273847103    0.516019225   -2.068448067
  584 SOL   HW2     1797    1.791709781    1.422993302   -1.747599959
  585 SOL   OW      1798    0.124948002   -0.036540493    0.055123914
  585 SOL   HW1     1799   -0.671238244    2.025757551    0.822457612
  585 SOL   HW2     1800   -1.541658282   -3.721342325    2.211421967
  586 SOL   OW      1801    0.275073946    0.010628217   -0.018184064
  586 SOL   HW1     1802   -0.706041038    0.410260588   -1.365409255
  586 SOL   HW2     1803   -2.252672195    1.635913730    1.167822719
  587 SOL   OW      1804   -0.188328668    0.262935340   -0.010321008
  587 SOL   HW1     1805   -0.734627545    0.335010439    1.480546474
  587 SOL   HW2     1806    0.088803865   -0.781776547    0.818714380
  588 SOL   OW      1807    0.368088156    0.537649930   -0.180168539
  588 SOL   HW1     1808    0.797865987    0.494399488   -1.437479138
  588 SOL   HW2     1809   -0.557606757    2.913950920    1.364539027
  589 SOL   OW      1810    0.067889117    0.128657237    0.278731078
  589 SOL   HW1     1811   -0.333122194    2.939413309   -0.330443799
  589 SOL   HW2     1812    0.137180418    1.287175655    2.913501978
  590 SOL   OW      1813   -1.054111838    0.308311790   -0.473387092
  590 SOL   HW1     1814    3.805933237    2.835729122   -2.854768753
  590 SOL   HW2     1815    2.483540773    0.693630755   -0.993461013
  591 SOL   OW      1816   -0.051435962    0.550750911   -0.022106400
  591 SOL   HW1     1817   -1.189564586   -1.129505038    1.977016211
  591 SOL   HW2     1818    0.091638371    1.285114527    1.386190653
  592 SOL   OW      1819    0.482942760   -0.217599630    0.105900936
  592 SOL   HW1     1820    2.353538752    0.404098451   -2.355217218
  592 SOL   HW2     1821   -1.776249409   -1.662262678   -0.281895280
  593 SOL   OW      1822   -0.957728684    0.790877342    0.276131719
  593 SOL   HW1     1823   -1.857604980   -2.212654352   -0.138918445
  593 SOL   HW2     1824   -4.904163361    1.931815386    0.072118424
  594 SOL   OW      1825   -0.029823089    0.456903070   -0.314256281
  594 SOL   HW1     1826   -0.021120457    0.323892206    2.349670887
  594 SOL   HW2     1827    0.437229842    3.300641060    3.112809896
  595 SOL   OW      1828   -0.325538725   -0.407024562   -0.394283175
  595 SOL   HW1     1829    3.199125290    1.133191109   -0.229395807
  595 SOL   HW2     1830   -0.123955786    1.876234055   -0.571310461
  596 SOL   OW      1831   -0.061591353   -0.447188348   -0.417454481
  596 SOL   HW1     1832    1.624169111    0.519545197   -3.051733017
  596 SOL   HW2     1833   -3.712538242    2.283766270    0.743559837
  597 SOL   OW      1834    0.412073076   -0.056066532    0.057821773
  597 SOL   HW1     1835   -1.730064034   -0.430774063   -1.058940530
  597 SOL   HW2     1836   -1.407128215    0.563881218    1.127358556
  598 SOL   OW      1837    0.485268891    0.215307161    0.319775909
  598 SOL   HW1     1838   -0.944384515    1.733356118   -0.129772484
  598 SOL   HW2     1839    0.211643189    0.322323352   -1.831255078
  599 SOL   OW      1840    0.231812999   -0.455473810   -0.520121217
  599 SOL   HW1     1841   -2.135309696    2.256450176   -0.198817387
  599 SOL   HW2     1842    0.939535737    0.581672966    0.350905716
  600 SOL   OW      1843    0.277761191    0.063339897    0.466446280
  600 SOL   HW1     1844    2.288629055   -0.269183010    3.633282185
  600 SOL   HW2     1845   -0.102734476   -4.054027557    2.340472460
  601 SOL   OW      1846   -0.390986949   -0.772530377    0.180095553
  601 SOL   HW1     1847    0.831945598    0.388270527   -0.740981042
  601 SOL   HW2     1848    0.609382153    0.465061367    1.273815155
  602 SOL   OW      1849   -0.002282508    0.270957649   -0.188281432
  602 SOL   HW1     1850    0.953433275   -4.714755535    1.928210497
  602 SOL   HW2     1851    1.483651876   -2.981794357   -0.607801676
  603 SOL   OW      1852   -0.004420055   -0.041593380   -0.689058423
  603 SOL   HW1     1853   -1.277788639   -1.438757420   -1.797373891
  603 SOL   HW2     1854    3.445170641   -1.144901276    1.186563969
  604 SOL   OW      1855    0.391718864   -0.165838331    0.536308587
  604 SOL   HW1     1856    0.175138250    3.166307449   -0.320072412
  604 SOL   HW2     1857   -0.054635987   -1.296135426   -1.339397907
  605 SOL   OW      1858    0.248392269   -0.315696359   -0.290992737
  605 SOL   HW1     1859   -2.222676039    0.414274037   -0.448723525
  605 SOL   HW2     1860   -0.787324965    0.379055440    1.208627462
  606 SOL   OW      1861    0.049387433    0.331384033    0.387555301
  606 SOL   HW1     1862   -2.359854698   -1.766286612   -0.148330465
  606 SOL   HW2     1863   -0.998066723   -1.533961654   -0.948797464
  607 SOL   OW      1864   -0.365772098   -0.261930019    0.111476608
  607 SOL   HW1     1865   -0.451981574    1.907571197   -1.114030719
  607 SOL   HW2     1866    1.051612616   -0.547799408    1.777339935
  608 SOL   OW      1867    0.242282107    0.048153888   -0.158618554
  608 SOL   HW1     1868    1.945723295    1.479999900   -0.487592548
  608 SOL   HW2     1869   -0.118839048   -1.767647743    0.311402500
  609 SOL   OW      1870    0.729660630   -0.118221208   -0.035309583
  609 SOL   HW1     1871   -0.743238270   -1.718352437    0.199331537
  609 SOL   HW2     1872    0.617160380    1.851230383   -0.857202411
  610 SOL   OW      1873    0.484025419   -0.385466784    0.089239776
  610 SOL   HW1     1874   -0.829601169    1.100799680    0.856484711
  610 SOL   HW2     1875   -1.695303440    2.230232239   -1.114971042
  611 SOL   OW      1876   -0.075427353   -0.449586421    0.033656672
  611 SOL   HW1     1877   -2.621070623   -1.491750360   -0.452939123
  611 SOL   HW2     1878   -1.567510605    1.666769624    0.925752282
  612 SOL   OW      1879   -0.218419656    0.365354985    0.072744258
  612 SOL   HW1     1880    0.092757761   -0.153693318   -3.218832254
  612 SOL   HW2     1881    0.667857349    0.679937780   -2.323260784
  613 SOL   OW      1882    0.037916116   -0.045593672   -0.797594428
  613 SOL   HW1     1883   -0.074554414   -2.180209398    0.398479104
  613 SOL   HW2     1884    0.718698680    0.771159410    1.338791609
  614 SOL   OW      1885    0.461359411    0.168234602   -0.387749195
  614 SOL   HW1     1886    0.141773492   -2.419991255   -0.928231955
  614 SOL   HW2     1887   -2.752679825    1.491683245    0.330562681
  615 SOL   OW      1888   -0.439091116    0.375081807   -0.250829369
  615 SOL   HW1     1889    0.712962627    1.006260514   -2.149136543
  615 SOL   HW2     1890    0.256191105   -0.219456911    0.011718765
  616 SOL   OW      1891   -0.459902793    0.004815968    0.269511700
  616 SOL   HW1     1892    0.663645804    3.462611437    0.397038907
  616 SOL   HW2     1893    0.801714122   -1.688667655   -1.204174995
  617 SOL   OW      1894   -0.291001320   -0.030371381    0.421074241
  617 SOL   HW1     1895    0.760610580   -1.351528406    1.103736520
  617 SOL   HW2     1896   -0.814926028   -1.566581607    0.992538869
  618 SOL   OW      1897    0.311011285   -0.405272394    0.693618715
  618 SOL   HW1     1898    0.386685908    4.495487690    1.787616253
  618 SOL   HW2     1899    1.129500628   -2.247103453   -0.612365663
  619 SOL   OW      1900    0.136091188    0.171480134    0.950124443
  619 SOL   HW1     1901   -0.994307041    1.076473236   -0.058956433
  619 SOL   HW2     1902   -2.231958628    1.855877757    2.164215803
  620 SOL   OW      1903   -0.655258000   -0.394155562    0.688451648
  620 SOL   HW1     1904   -1.728670359   -1.365658641    4.763731956
  620 SOL   HW2     1905    1.447327018   -1.776013374   -0.630411029
  621 SOL   OW      1906   -0.268932313    0.122585274   -0.202189356
  621 SOL   HW1     1907   -0.587824643   -0.764644206    2.188112020
  621 SOL   HW2     1908   -1.225793481   -1.069364190   -0.325825155
  622 SOL   OW      1909    0.002295632    0.130739942   -0.064747877
  622 SOL   HW1     1910    0.150302887   -0.969884396   -0.193322703
  622 SOL   HW2     1911    1.818407893   -0.784044862    1.038426638
  623 SOL   OW      1912    0.417869806   -0.186501727   -0.305198669
  623 SOL   HW1     1913    0.305200428   -1.922411680    0.841206610
  623 SOL   HW2     1914   -1.540593028    0.164372146    2.530907869
  624 SOL   OW      1915   -0.085067280    0.001733205   -0.206711993
  624 SOL   HW1     1916    2.781804800   -1.395374894   -3.126204252
  624 SOL   HW2     1917    1.133885384    0.085287087    0.546945155
  625 SOL   OW      1918    0.400251001    0.330822587    0.828031778
  625 SOL   HW1     1919   -0.817780018   -1.059219480    0.489926159
  625 SOL   HW2     1920   -2.202759743   -0.838854074    0.600771427
  626 SOL   OW      1921   -0.134669453    0.058447666    0.538232565
  626 SOL   HW1     1922    0.347158074    1.924677968    0.409779489
  626 SOL   HW2     1923    2.719407320   -2.356449604    2.707958221
  627 SOL   OW      1924    0.233926058   -0.201163828   -0.249586150
  627 SOL   HW1     1925   -2.301279545   -1.374269485   -0.407475144
  627 SOL   HW2     1926    2.432342529    0.967705071   -0.703684926
  628 SOL   OW      1927   -0.080229953   -0.717887402    0.226074919
  628 SOL   HW1     1928   -1.227137327    2.843449116    1.161296487
  628 SOL   HW2     1929    1.776835084    2.358367682   -0.495030612
  629 SOL   OW      1930   -0.549484193    0.908572197    0.023908952
  629 SOL   HW1     1931   -0.929197669    1.639409542    1.993971229
  629 SOL   HW2     1932    0.192448437   -2.836980343   -1.170167804
  630 SOL   OW      1933   -0.033207096   -0.144319028   -0.375533849
  630 SOL   HW1     1934    0.626076281    1.761640072    0.894807041
  630 SOL   HW2     1935   -1.450144887   -0.448500931    1.964459300
  631 SOL   OW      1936    0.774817467   -0.029014396   -0.163917139
  631 SOL   HW1     1937    1.979882360    0.830310702   -0.934902012
  631 SOL   HW2     1938    3.272546530   -3.297849178    1.241647840
  632 SOL   OW      1939    0.115459479    0.007055984   -0.401121557
  632 SOL   HW1     1940    0.891111255    0.641390920   -0.111245587
  632 SOL   HW2     1941   -0.314985871   -0.956931412   -0.745860994
  633 SOL   OW      1942   -0.287670851   -0.307276875    0.514453113
  633 SOL   HW1     1943   -1.748316169   -0.596332014    0.368340880
  633 SOL   HW2     1944   -0.000017739    2.500992060   -2.125351191
  634 SOL   OW      1945   -0.532753825    0.441775113    0.473533183
  634 SOL   HW1     1946   -1.317407846    0.545029879    1.014294624
  634 SOL   HW2     1947   -0.737925470   -1.268683195   -1.843517423
  635 SOL   OW      1948   -0.085810423   -0.195068330    0.279746205
  635 SOL   HW1     1949    3.728952646    0.003865213   -0.378790468
  635 SOL   HW2     1950    1.512150049    0.446857065   -0.049756184
  636 SOL   OW      1951    0.203314677   -0.141374618    0.014679717
  636 SOL   HW1     1952   -0.734089434   -0.245403886    0.853997827
  636 SOL   HW2     1953   -0.696410656   -2.306380272    0.261896580
  637 SOL   OW      1954    0.358110726   -0.334266454    0.068637975
  637 SOL   HW1     1955   -1.008387208   -3.159385204    0.496727645
  637 SOL   HW2     1956    0.012992557   -0.309417993    2.251446962
  638 SOL   OW      1957    0.035566092    0.345539302    0.367326021
  638 SOL   HW1     1958    1.607013822   -1.063329577   -1.572819829
  638 SOL   HW2     1959    3.574604034   -0.648034215    0.304654270
  639 SOL   OW      1960    0.066971369    0.047097716   -0.299293160
  639 SOL   HW1     1961   -1.216744423   -0.738877773   -1.787979126
  639 SOL   HW2     1962   -1.611638308   -0.075531177   -2.820610046
  640 SOL   OW      1963   -0.389311314   -0.288083911   -0.392020673
  640 SOL   HW1     1964    1.219510913   -0.089935116    1.779125690
  640 SOL   HW2     1965   -1.875022531   -0.995737433    0.478398502
  641 SOL   OW      1966    0.229861900    0.486118436    0.194769785
  641 SOL   HW1     1967   -2.114804983    0.883642197    2.032127142
  641 SOL   HW2     1968    1.408011198   -0.130513877    0.645666957
  642 SOL   OW      1969   -0.008951999    0.544532001    0.151562884
  642 SOL   HW1     1970   -1.408472538   -0.082157746   -1.088152409
  642 SOL   HW2     1971    3.174383163   -0.721202433    1.404659390
  643 SOL   OW      1972    0.085239977    0.272940904    0.021608066
  643 SOL   HW1     1973   -2.642241955    0.275672138   -3.059704304
  643 SOL   HW2     1974    1.504788280    1.549141645   -0.597400367
  644 SOL   OW      1975   -0.132484972    0.244698331   -0.314421058
  644 SOL   HW1     1976   -0.568407714    1.485481739    0.843326151
  644 SOL   HW2     1977    1.074079633   -0.927364409    1.261077523
  645 SOL   OW      1978    0.097339608   -0.149690390    0.219893470
  645 SOL   HW1     1979    1.410948634    1.393573403    0.553168416
  645 SOL   HW2     1980    3.276911497    0.337491035   -0.375281513
  646 SOL   OW      1981    0.425720364    0.147589520   -0.157560244
  646 SOL   HW1     1982   -0.166909471   -0.021980185    0.277592003
  646 SOL   HW2     1983    2.182838440   -0.503494501   -0.901481450
  647 SOL   OW      1984   -0.340360016   -0.107386522   -0.203700915
  647 SOL   HW1     1985    0.369537234    2.651670456    0.510677457
  647 SOL   HW2     1986    0.181546122   -0.003593561   -1.856597185
  648 SOL   OW      1987    0.134691268   -0.085939705   -0.135525078
  648 SOL   HW1     1988   -1.327972412   -4.393158913   -1.616266966
  648 SOL   HW2     1989   -1.438273668   -1.204416275    2.352344990
  649 SOL   OW      1990   -0.097480215   -0.000662880    0.184743851
  649 SOL   HW1     1991    1.257449150    2.774137974   -2.154024601
  649 SOL   HW2     1992   -1.169262409   -0.510088921    1.143650293
  650 SOL   OW      1993   -0.632463753   -0.216252655    0.247553647
  650 SOL   HW1     1994    1.267318249    1.474141836   -1.389249563
  650 SOL   HW2     1995    0.993923426   -0.402474225    0.005526310
  651 SOL   OW      1996   -0.452006727    0.320759356    0.591183841
  651 SOL   HW1     1997   -1.079807401   -1.172333002   -0.857836485
  651 SOL   HW2     1998    1.564809799   -1.284740686   -1.515149593
  652 SOL   OW      1999   -0.108723789   -0.071547277    0.061371244
  652 SOL   HW1     2000   -2.196468830    1.628172278    0.759134352
  652 SOL   HW2     2001   -3.957137346   -1.952979326   -1.342363238
  653 SOL   OW      2002   -0.224435553   -0.115979485    0.707238495
  653 SOL   HW1     2003   -0.333385229   -0.050271787    2.043647528
  653 SOL   HW2     2004    0.475270927   -3.655943155   -0.118243948
  654 SOL   OW      2005   -0.005500247   -0.214240521   -0.470092535
  654 SOL   HW1     2006    0.088055536    0.519077718    1.419438958
  654 SOL   HW2     2007   -1.789202452   -0.931853235    0.817424953
  655 SOL   OW      2008   -1.000707626   -0.297774076   -0.354094118
  655 SOL   HW1     2009    4.218672276   -0.866586387    0.215719357
  655 SOL   HW2     2010   -1.624671578   -0.862648666    0.039225619
  656 SOL   OW      2011    0.165995881   -0.329615235   -0.264263123
  656 SOL   HW1     2012    1.370343447   -2.860878468   -0.560085595
  656 SOL   HW2     2013    1.013088226   -1.702331066    2.775171757
  657 SOL   OW      2014    0.078656167    0.109042786   -0.010378559
  657 SOL   HW1     2015    0.738867760    0.190428138    0.510926664
  657 SOL   HW2     2016    1.792999268    1.940840244    0.299186260
  658 SOL   OW      2017   -0.087770164   -0.336727440   -0.210912123
  658 SOL   HW1     2018   -0.914690375   -1.682665944    4.130178452
  658 SOL   HW2     2019    1.850334764   -0.391191304    1.078677297
  659 SOL   OW      2020    0.088510796   -0.106899016   -0.307568312
  659 SOL   HW1     2021    2.426977873   -0.634761751   -1.032827616
  659 SOL   HW2     2022   -2.122955322   -3.366702318    0.951475501
  660 SOL   OW      2023    0.111106500    0.343982905    0.522368670
  660 SOL   HW1     2024   -1.078654528    1.445576668   -2.207642794
  660 SOL   HW2     2025   -2.580651522    1.173449993    0.738081515
  661 SOL   OW      2026    0.413989842   -0.091664307   -0.199161753
  661 SOL   HW1     2027   -2.450133801    0.390650719   -0.360320538
  661 SOL   HW2     2028   -0.966619670   -1.585921168    1.434944510
  662 SOL   OW      2029   -0.808899164   -0.137809336    0.665676534
  662 SOL   HW1     2030   -0.468827993   -1.083522677    0.607959211
  662 SOL   HW2     2031   -1.252766132   -0.964264512   -1.985138655
  663 SOL   OW      2032    0.186840743    0.266485155    0.393042475
  663 SOL   HW1     2033   -1.754809380    2.421736002    0.755799532
  663 SOL   HW2     2034   -2.253469229    0.051464435    1.119271040
  664 SOL   OW      2035   -0.127618775    0.007533562    0.324409217
  664 SOL   HW1     2036    0.789197683   -0.242396504   -1.778419495
  664 SOL   HW2     2037    0.404707551    1.690196753   -0.535358429
  665 SOL   OW      2038   -0.734333098    0.096137501    0.534077823
  665 SOL   HW1     2039   -0.683032095   -2.711963415   -0.368563801
  665 SOL   HW2     2040    3.503493309    0.943474591    0.161347061
  666 SOL   OW      2041   -0.166231185   -0.020059148   -0.059185054
  666 SOL   HW1     2042   -1.227790594    0.756900132   -2.469127655
  666 SOL   HW2     2043    0.967547357   -0.449307084   -0.102952443
  667 SOL   OW      2044   -0.223240301    0.111041084   -0.126681253
  667 SOL   HW1     2045    2.342715025   -1.005028486    0.144025698
  667 SOL   HW2     2046   -0.702144682    0.427997857    2.339925766
  668 SOL   OW      2047   -0.649639428    0.335669458    0.023545170
  668 SOL   HW1     2048    0.666584551    2.926821232   -0.798616946
  668 SOL   HW2     2049    0.421145648   -0.462075442    0.162289128
  669 SOL   OW      2050    0.464381516   -0.456555545    0.233437195
  669 SOL   HW1     2051   -1.044192433   -2.147289038    1.632056832
  669 SOL   HW2     2052   -0.489077449   -2.609251738   -1.156249523
  670 SOL   OW      2053    0.185674638    0.496332854   -0.656746328
  670 SOL   HW1     2054    0.572494328    1.865971446    0.577565432
  670 SOL   HW2     2055    1.616194487    1.184852481    0.271112174
  671 SOL   OW      2056    0.267082810   -0.237816453   -0.065542653
  671 SOL   HW1     2057   -0.818181753    1.763672471   -0.633608103
  671 SOL   HW2     2058   -0.755000949    1.367240548   -1.316496968
  672 SOL   OW      2059    0.864644289    0.413688213   -0.492635280
  672 SOL   HW1     2060    1.346766114    2.155905485   -0.262502819
  672 SOL   HW2     2061   -0.464118183   -1.936308861    1.428430200
  673 SOL   OW      2062    0.211148351   -0.200135797    0.131267965
  673 SOL   HW1     2063    1.070048571   -0.458420664   -1.690692067
  673 SOL   HW2     2064   -0.300588399    0.183790594    0.253896207
  674 SOL   OW      2065   -0.672926247    0.060274482   -0.623397946
  674 SOL   HW1     2066    0.302147359    0.590822041    0.119667068
  674 SOL   HW2     2067   -0.611343980   -0.348367631    1.159093857
  675 SOL   OW      2068   -0.739822567    0.208797917   -0.288093209
  675 SOL   HW1     2069   -2.793023109    1.101262689   -1.691732049
  675 SOL   HW2     2070   -0.198643729   -0.186629161    1.090929627
  676 SOL   OW      2071    0.017634928   -0.616786063    0.650909483
  676 SOL   HW1     2072    1.768964529    2.588404655    1.054261804
  676 SOL   HW2     2073    0.986146510   -1.581785440   -1.123364806
  677 SOL   OW      2074    0.157974735    0.043606896   -0.587048769
  677 SOL   HW1     2075   -0.057432022    1.254959345   -0.131558821
  677 SOL   HW2     2076    0.322856069    0.492903888   -3.219951630
  678 SOL   OW      2077    0.635416150    0.017649420    0.138445362
  678 SOL   HW1     2078   -2.238729954   -1.544758320   -0.680479348
  678 SOL   HW2     2079    2.136909723    0.749821126   -2.155219555
  679 SOL   OW      2080    0.396522880   -0.731327772   -0.115640745
  679 SOL   HW1     2081   -1.004560709   -1.050870419   -1.779291868
  679 SOL   HW2     2082   -1.534031391   -0.895186722    0.463372976
  680 SOL   OW      2083    0.343638778   -0.760048568    0.112636551
  680 SOL   HW1     2084    1.333594799    0.413647234    3.077879906
  680 SOL   HW2     2085    0.573480248   -2.564728022    2.477947235
  681 SOL   OW      2086    0.041879714   -0.229971245    0.173014358
  681 SOL   HW1     2087    2.423295498   -1.075986147    1.603761315
  681 SOL   HW2     2088    0.749468684    2.648555756    0.576178670
  682 SOL   OW      2089    0.448799640    0.321631491    0.640538931
  682 SOL   HW1     2090   -0.098691635   -0.616232216   -2.352412701
  682 SOL   HW2     2091    0.453379363   -1.137533784    1.134256244
  683 SOL   OW      2092    0.162277713    0.043825481   -0.400043547
  683 SOL   HW1     2093    1.204191446   -1.227619052    1.151917100
  683 SOL   HW2     2094    3.501941681   -2.226647854    0.777140856
  684 SOL   OW      2095   -0.251072466   -0.236407965   -0.282047838
  684 SOL   HW1     2096    1.202635527    0.614227355    0.717684448
  684 SOL   HW2     2097   -0.964034319    0.007742833    0.297966689
  685 SOL   OW      2098    0.196164683   -0.375668705    0.292054027
  685 SOL   HW1     2099   -2.703735113    1.288257003   -1.160144925
  685 SOL   HW2     2100    0.510054767   -1.709251881    1.111612201
  686 SOL   OW      2101   -0.253719658   -0.239755079    0.215907931
  686 SOL   HW1     2102   -1.867807508   -0.552791357    1.039109111
  686 SOL   HW2     2103   -2.556980133   -1.364955425    2.056672812
  687 SOL   OW      2104    0.456639707    0.883720994    0.581051946
  687 SOL   HW1     2105   -0.194401354    0.383942574   -1.311890602
  687 SOL   HW2     2106    2.101046324    1.147062063   -0.005887953
  688 SOL   OW      2107    0.010938192   -0.641295075    0.210757017
  688 SOL   HW1     2108   -2.758786440   -0.458751082   -0.205497190
  688 SOL   HW2     2109   -1.217512965   -1.782328844    1.430660129
  689 SOL   OW      2110   -0.465662390   -0.204252884   -0.408492297
  689 SOL   HW1     2111   -0.328575909   -2.136539698    0.246483400
  689 SOL   HW2     2112    0.907872498   -0.463745713    0.233009428
  690 SOL   OW      2113    0.412405074    0.130156115   -0.594841480
  690 SOL   HW1     2114    0.481563449   -1.819357157    0.863849699
  690 SOL   HW2     2115   -0.311286926    2.980740070   -0.573046029
  691 SOL   OW      2116   -0.772581697   -0.084208466   -0.890785158
  691 SOL   HW1     2117   -1.659018397   -2.372284412    1.676810026
  691 SOL   HW2     2118   -1.810909390    0.050269540   -1.023925185
  692 SOL   OW      2119   -0.175913140    0.653217733    0.449142307
  692 SOL   HW1     2120   -1.872954011    0.862526834    2.450347900
  692 SOL   HW2     2121   -1.583324194    1.433643937    1.566080093
  693 SOL   OW      2122   -0.125398919    0.102467611    0.091914661
  693 SOL   HW1     2123    0.680452168   -0.301331073    0.687355280
  693 SOL   HW2     2124   -0.257365495    1.330462575   -1.208732605
  694 SOL   OW      2125   -0.320189804    0.558346927   -0.699453473
  694 SOL   HW1     2126    0.562392533    5.898355484   -0.366496682
  694 SOL   HW2     2127   -2.142350197    0.405515283   -3.419560909
  695 SOL   OW      2128   -0.333723277    0.388422757   -0.315060645
  695 SOL   HW1     2129    2.665519238    2.641491175   -0.582151234
  695 SOL   HW2     2130    3.359534025    0.617431760    1.977950096
  696 SOL   OW      2131    0.530974030   -0.301979542    0.616224945
  696 SOL   HW1     2132    0.821737289   -0.499378711    1.611293316
  696 SOL   HW2     2133   -0.116465971    1.060812473   -1.670467734
  697 SOL   OW      2134   -0.123630412   -0.125870362   -0.056942526
  697 SOL   HW1     2135   -0.399133265    2.245094776    0.267825603
  697 SOL   HW2     2136    0.882835031   -1.522319078   -1.653433800
  698 SOL   OW      2137    0.184974864    0.117784984    0.042287096
  698 SOL   HW1     2138   -1.007366538   -0.745083928    1.738641739
  698 SOL   HW2     2139    3.220666885    1.133767366    4.441359043
  699 SOL   OW      2140   -0.241358131   -0.240254000    0.348217696
  699 SOL   HW1     2141   -3.392710447   -0.680908859    2.504474640
  699 SOL   HW2     2142    1.362738490    0.651727021    1.421884775
  700 SOL   OW      2143   -0.573045969    0.372778028   -0.101961568
  700 SOL   HW1     2144    0.964837670    1.874598622   -0.515219986
  700 SOL   HW2     2145    1.615220904    0.532374084    1.294185519
  701 SOL   OW      2146    0.034166269    0.283305258    0.520679235
  701 SOL   HW1     2147    1.163643122   -0.571460128   -0.205936477
  701 SOL   HW2     2148   -2.393151999   -2.244599104   -1.053892016
  702 SOL   OW      2149   -0.775194168    0.183265343   -0.030290730
  702 SOL   HW1     2150   -1.176282048   -2.016378880   -0.477125436
  702 SOL   HW2     2151    0.545686901    2.207429409    0.699674785
  703 SOL   OW      2152    0.206067458    0.233937204    0.136736959
  703 SOL   HW1     2153    0.313588798    0.570783198   -1.422818542
  703 SOL   HW2     2154   -0.274440497    0.338446319   -2.968420982
  704 SOL   OW      2155   -0.785444379   -0.065082736    0.159245387
  704 SOL   HW1     2156   -0.961376190    3.670033932    0.448443025
  704 SOL   HW2     2157    1.526229501   -1.872985005   -2.111154318
  705 SOL   OW      2158    1.051738262   -0.200182706   -0.118389539
  705 SOL   HW1     2159   -2.199358463   -0.742301226    0.801464975
  705 SOL   HW2     2160    0.995839536    1.481255651    0.018901732
  706 SOL   OW      2161    0.200112194   -0.003065317   -0.325967640
  706 SOL   HW1     2162   -1.011190891    0.090057164    2.487812996
  706 SOL   HW2     2163   -1.253279686   -1.296370268   -1.699693680
  707 SOL   OW      2164    0.182319939    0.025397137    0.364676863
  707 SOL   HW1     2165    0.642442822    2.457926035   -2.104465246
  707 SOL   HW2     2166   -1.053389311    1.264622450    2.170387745
  708 SOL   OW      2167    0.928802073    0.073533975   -0.040822838
  708 SOL   HW1     2168   -1.379945278    0.277718604    3.516224861
  708 SOL   HW2     2169   -2.308150291   -0.207117617   -0.791735530
  709 SOL   OW      2170   -0.542015254    0.266435474   -0.153463498
  709 SOL   HW1     2171   -3.278609514    1.944017768   -0.557291090
  709 SOL   HW2     2172    2.675398827   -0.957030416   -2.096865654
  710 SOL   OW      2173   -0.514694273   -0.265363395   -0.073788263
  710 SOL   HW1     2174   -1.065777779    0.524789929   -0.985273898
  710 SOL   HW2     2175    2.202313662    0.972922206   -2.169798613
  711 SOL   OW      2176    0.397027761    0.762022853   -0.157562926
  711 SOL   HW1     2177   -1.424073100    0.727189720    1.278915644
  711 SOL   HW2     2178    1.728822947    1.356127262    1.925653815
  712 SOL   OW      2179   -0.831189573    0.505113721   -0.189619333
  712 SOL   HW1     2180   -2.105951071    0.228478029   -1.835802794
  712 SOL   HW2     2181    1.448877811   -1.127774477   -0.481440187
  713 SOL   OW      2182    0.250244379    0.026800273    0.327112973
  713 SOL   HW1     2183    2.264283895   -2.004163265    1.815627098
  713 SOL   HW2     2184    0.297881424   -0.113061041   -0.983464718
  714 SOL   OW      2185   -0.151890576    0.022258895   -0.110571191
  714 SOL   HW1     2186   -1.027642131    1.689736605    0.048672218
  714 SOL   HW2     2187   -2.556039572   -1.332562447   -1.586815238
  715 SOL   OW      2188   -0.522717535   -0.012298274    0.334753394
  715 SOL   HW1     2189    2.925402641   -3.221609354    1.052358270
  715 SOL   HW2     2190    1.450960279    2.015808344   -0.525509298
  716 SOL   OW      2191    0.306008577    0.165251151    0.523388445
  716 SOL   HW1     2192   -0.976571679    1.184464812   -0.038269952
  716 SOL   HW2     2193   -1.011702895    0.818218350    0.224809378
  717 SOL   OW      2194   -0.571118116    0.228934228    0.050360374
  717 SOL   HW1     2195    2.242480755    0.366509736    1.905228257
  717 SOL   HW2     2196   -0.564898014   -0.423891157    3.150551796
  718 SOL   OW      2197   -0.380292386    0.331129402    0.742460966
  718 SOL   HW1     2198   -0.979094326    1.379959345    0.712265313
  718 SOL   HW2     2199    0.958937168    1.011287093    2.205307722
  719 SOL   OW      2200    0.116488248    0.444194227    0.543991148
  719 SOL   HW1     2201    0.479070753   -0.930257916    1.051825881
  719 SOL   HW2     2202   -0.980896652   -0.208553001   -0.896368504
  720 SOL   OW      2203    0.072406821   -0.029894058    0.418535292
  720 SOL   HW1     2204   -1.800422668   -1.740610123   -0.206907332
  720 SOL   HW2     2205    0.061493054    1.867034674    0.520679057
  721 SOL   OW      2206   -0.138754144    0.408632338    0.083433010
  721 SOL   HW1     2207   -1.507007480    3.049204826    0.908327162
  721 SOL   HW2     2208   -0.234505862   -1.855457425   -0.395711035
  722 SOL   OW      2209   -0.079903111    0.601031005   -0.312556267
  722 SOL   HW1     2210   -0.973297298    0.873760879   -1.289274693
  722 SOL   HW2     2211   -0.858615339   -2.314424753    0.941446602
  723 SOL   OW      2212    0.002383424    0.204018757    0.377420217
  723 SOL   HW1     2213   -2.963752747   -0.457392633   -0.321731120
  723 SOL   HW2     2214   -0.442481309   -0.869093597   -3.850057364
  724 SOL   OW      2215    0.359437972    0.117734469   -0.181265309
  724 SOL   HW1     2216    0.751601517   -2.699389696    0.006112348
  724 SOL   HW2     2217   -1.076287508    1.633160710    1.644405723
  725 SOL   OW      2218    0.135724276   -0.173685685   -0.067563854
  725 SOL   HW1     2219   -1.362751603   -2.281522036   -1.562654138
  725 SOL   HW2     2220   -1.867793918    0.101575889   -0.018276032
  726 SOL   OW      2221    0.169828579    0.140756950   -0.400194436
  726 SOL   HW1     2222    0.108328544    0.368171364    0.250954449
  726 SOL   HW2     2223    0.125530079   -0.780847907    1.996834517
  727 SOL   OW      2224   -0.330967605    0.745629549    0.610280991
  727 SOL   HW1     2225    1.309310317   -1.184941649   -0.044785392
  727 SOL   HW2     2226    2.588647842   -0.968481123   -1.026587248
  728 SOL   OW      2227   -0.117399722   -0.380554914    0.219188422
  728 SOL   HW1     2228   -0.248506129    2.021903038   -0.428555340
  728 SOL   HW2     2229   -1.479197025   -0.689650357    2.348164320
  729 SOL   OW      2230   -0.487843871   -0.352718204    0.727915168
  729 SOL   HW1     2231   -0.211537719    0.271516025   -0.385832816
  729 SOL   HW2     2232    3.896560669   -1.095316887   -0.139051944
  730 SOL   OW      2233    0.395584285   -0.218295783   -0.716755390
  730 SOL   HW1     2234   -0.710275948   -0.200021371    0.141264603
  730 SOL   HW2     2235    1.170164585   -0.175738469    0.999043882
  731 SOL   OW      2236    0.118418798    0.159662798    0.051865231
  731 SOL   HW1     2237    1.064386249   -1.834869981    0.890174389
  731 SOL   HW2     2238    1.005234718    0.471905112   -0.945158660
  732 SOL   OW      2239   -0.737835884   -0.275558531    0.356733322
  732 SOL   HW1     2240   -1.157415152   -0.697307467    3.002550840
  732 SOL   HW2     2241   -0.762576938    1.112447143    0.282249898
  733 SOL   OW      2242    0.508794367   -0.108352028    0.126069263
  733 SOL   HW1     2243   -1.096221805    0.317035764   -0.086641081
  733 SOL   HW2     2244    2.568309307    2.839002848   -1.108462334
  734 SOL   OW      2245    0.147109553    0.133727446   -0.268345386
  734 SOL   HW1     2246    0.055777606   -0.636708796    3.679699898
  734 SOL   HW2     2247    2.649538040    0.709550500   -3.590972185
  735 SOL   OW      2248   -0.229187325    0.369881570   -0.189912155
  735 SOL   HW1     2249    0.883120000   -0.323295325   -0.650350213
  735 SOL   HW2     2250    2.479135036   -3.450434685   -0.231716231
  736 SOL   OW      2251    0.826315343   -0.308009356    0.664954007
  736 SOL   HW1     2252    0.298431069    0.868315041    0.581593633
  736 SOL   HW2     2253   -1.312574029    1.866776586    1.996376395
  737 SOL   OW      2254    0.940910637    0.016895127   -1.041742086
  737 SOL   HW1     2255    1.542968154    0.571371675   -0.549452603
  737 SOL   HW2     2256   -1.040402770   -0.994888663    1.259375811
  738 SOL   OW      2257   -0.627862751    0.144576058   -0.195851743
  738 SOL   HW1     2258    0.013475670   -2.260030985   -1.669983029
  738 SOL   HW2     2259   -1.084943295    0.607953906    0.189244717
  739 SOL   OW      2260    0.362582594    0.500658035   -0.176196039
  739 SOL   HW1     2261    2.027940035    0.443250358   -0.676247418
  739 SOL   HW2     2262    0.230868265    1.604163527   -2.207457066
  740 SOL   OW      2263    0.465955198    0.254641742   -0.145646632
  740 SOL   HW1     2264    1.720069408   -1.485904455    1.207110286
  740 SOL   HW2     2265   -2.339629173   -0.716947794   -1.420177341
  741 SOL   OW      2266    0.457650036    0.406795591    0.042222209
  741 SOL   HW1     2267    1.680320382    0.822504938   -0.714725256
  741 SOL   HW2     2268    1.145924568    1.464185715   -2.859839916
  742 SOL   OW      2269   -0.041721255    0.292601854   -0.586283743
  742 SOL   HW1     2270   -3.593060970    2.825734854   -2.523666859
  742 SOL   HW2     2271   -2.363741398    0.069431946   -2.012147427
  743 SOL   OW      2272   -0.275888890   -0.268573254    0.116159558
  743 SOL   HW1     2273   -0.839523852    0.275220245   -1.942126393
  743 SOL   HW2     2274    1.197515368   -1.146614790   -0.368622333
  744 SOL   OW      2275   -0.330795169    0.718805134   -1.224057078
  744 SOL   HW1     2276    1.537534356    1.000108123    0.733963251
  744 SOL   HW2     2277    0.518646777    0.890704632   -2.628247738
  745 SOL   OW      2278   -0.326043159    0.002956747    0.094630674
  745 SOL   HW1     2279   -2.135869741   -0.593043089   -1.068974018
  745 SOL   HW2     2280    0.530790687   -4.611929893   -1.627326965
  746 SOL   OW      2281    0.169758677   -0.560716927    0.230496824
  746 SOL   HW1     2282    0.046213020   -1.413187504   -2.219130278
  746 SOL   HW2     2283    0.258209586   -0.636670887    0.410344094
  747 SOL   OW      2284   -0.596358120   -0.630499423   -0.002320824
  747 SOL   HW1     2285    0.706931114    0.003998996   -1.673722744
  747 SOL   HW2     2286    1.231513262    1.021999240   -0.960050642
  748 SOL   OW      2287   -0.482439965   -0.050691124    0.457245350
  748 SOL   HW1     2288   -3.197986603   -1.322991490   -0.211370051
  748 SOL   HW2     2289    1.321895242    0.620643437    0.388897866
  749 SOL   OW      2290    0.357729435   -0.047801442   -0.082589671
  749 SOL   HW1     2291    0.052605879    0.279671669    0.157464892
  749 SOL   HW2     2292    1.574748755    5.062899590   -0.722285748
  750 SOL   OW      2293   -0.095842011    0.210039675    0.705128193
  750 SOL   HW1     2294   -1.397566676    0.769285023   -0.113290243
  750 SOL   HW2     2295   -1.401938915   -1.697971702   -0.463130116
  751 SOL   OW      2296   -0.173538134   -0.259052128    0.333353788
  751 SOL   HW1     2297    1.433433890   -1.027893543    0.319405556
  751 SOL   HW2     2298    2.588783264    0.461183220    0.704620957
  752 SOL   OW      2299    0.214125678   -0.224991158   -0.378770411
  752 SOL   HW1     2300   -0.482006282   -1.704972267   -1.855524778
  752 SOL   HW2     2301    0.015239865   -0.420082778   -0.964489460
  753 SOL   OW      2302    0.556618929    0.608380497   -0.250180066
  753 SOL   HW1     2303    0.705805302   -1.995277047    0.083795890
  753 SOL   HW2     2304   -1.517674327   -2.533109903   -0.393936396
  754 SOL   OW      2305   -0.206287950    0.454396367   -0.695494533
  754 SOL   HW1     2306    0.187282011    1.279061794    2.292982817
  754 SOL   HW2     2307    0.426559865   -1.365081191    1.266812801
  755 SOL   OW      2308    0.292351335    0.309139043    0.563756883
  755 SOL   HW1     2309    1.271516085    0.161049932    0.560573220
  755 SOL   HW2     2310    2.146944284   -1.207388163   -0.806526244
  756 SOL   OW      2311   -0.275327832    0.048997749    0.042063612
  756 SOL   HW1     2312   -1.024085283   -2.663009644    0.690738201
  756 SOL   HW2     2313    0.914405584   -1.710026741    0.949734569
  757 SOL   OW      2314   -0.183307663   -0.384807527    0.191164538
  757 SOL   HW1     2315   -0.896674156   -0.840386033   -0.439098954
  757 SOL   HW2     2316   -0.104919478   -0.267616242    0.627690554
  758 SOL   OW      2317   -0.242055342    0.555712521   -0.262644053
  758 SOL   HW1     2318    1.513234854    0.955739558   -0.296632469
  758 SOL   HW2     2319    2.192860126    3.089467287   -0.907998145
  759 SOL   OW      2320   -0.277594775    0.043449339    0.427352309
  759 SOL   HW1     2321    1.382047653    0.426071703   -0.518324852
  759 SOL   HW2     2322    0.089214586   -1.279791832   -1.589870811
  760 SOL   OW      2323   -0.098024070    0.242804334    0.129472286
  760 SOL   HW1     2324    0.014170261    2.275705576   -0.356203586
  760 SOL   HW2     2325    1.393122792    0.227038085    0.269388705
  761 SOL   OW      2326    0.440698475   -0.604747653   -0.759256184
  761 SOL   HW1     2327    0.530053079   -0.673783779   -1.879649997
  761 SOL   HW2     2328   -0.358571976    2.005336046   -1.818027496
  762 SOL   OW      2329    0.328637898    0.164629161   -0.939734876
  762 SOL   HW1     2330   -0.368545562   -1.205163121    0.534966409
  762 SOL   HW2     2331    3.592725754    0.575619280   -1.204389811
  763 SOL   OW      2332    0.230690882   -0.496079117    0.338983536
  763 SOL   HW1     2333    1.434526086   -1.944722176   -1.009625554
  763 SOL   HW2     2334   -0.627722800    0.049479440   -0.026210155
  764 SOL   OW      2335    0.182417437    1.135390401    0.167230889
  764 SOL   HW1     2336    0.282722831    0.236411259    3.108878851
  764 SOL   HW2     2337    0.246506765    0.580464303    3.191561460
  765 SOL   OW      2338    0.280121267   -0.206038103    0.264199197
  765 SOL   HW1     2339    0.672330201   -0.258113503   -1.195107937
  765 SOL   HW2     2340    4.065587997    1.431731224    0.538892090
  766 SOL   OW      2341    0.004087771   -0.050206717   -0.575638652
  766 SOL   HW1     2342   -1.802079320    1.413122773   -0.343176812
  766 SOL   HW2     2343   -0.586714447   -3.109755278    0.547092319
  767 SOL   OW      2344   -0.070628703    0.330026478   -0.867678165
  767 SOL   HW1     2345   -1.155258417    1.601072550    3.077224255
  767 SOL   HW2     2346   -1.926594734    0.425791591   -0.329068244
  768 SOL   OW      2347   -0.245624542   -0.357573271    0.004497547
  768 SOL   HW1     2348   -0.598258317   -2.838039160    0.156666666
  768 SOL   HW2     2349    0.564101636   -1.879721999   -0.622309268
  769 SOL   OW      2350    0.078515753    0.427047968    0.273142815
  769 SOL   HW1     2351    0.441439301    1.527264476   -3.326883316
  769 SOL   HW2     2352    0.765943408   -1.545409560    1.950445175
  770 SOL   OW      2353    0.037134010   -0.105249472   -0.526485503
  770 SOL   HW1     2354   -1.075917482    0.005647446   -0.146497563
  770 SOL   HW2     2355    0.954484105    0.380996227    1.946681857
  771 SOL   OW      2356    0.320673048    0.075916767   -0.346677005
  771 SOL   HW1     2357    0.352814227   -1.732437730    0.702179193
  771 SOL   HW2     2358    1.086427212    1.308529615    0.554373026
  772 SOL   OW      2359   -0.476788402   -0.699660063    0.321820468
  772 SOL   HW1     2360    0.565096915    0.606115818    1.836610556
  772 SOL   HW2     2361    1.429628730   -3.160630941   -2.063733101
  773 SOL   OW      2362    0.767684996   -0.324544191   -0.068397738
  773 SOL   HW1     2363    1.210454822   -2.120597839   -1.699891090
  773 SOL   HW2     2364   -3.108519316    0.207277954    3.052928686
  774 SOL   OW      2365   -0.599333107   -0.870914817    0.149321482
  774 SOL   HW1     2366    4.413590908    0.842023134    0.401890129
  774 SOL   HW2     2367    2.113945007    0.594462812    0.718541980
  775 SOL   OW      2368   -0.181413203   -0.717391014   -0.330118448
  775 SOL   HW1     2369   -0.852455676   -0.177321583    0.697875202
  775 SOL   HW2     2370    1.200399399    0.700614095    1.935175776
  776 SOL   OW      2371   -0.216257527    0.325280428    0.367574751
  776 SOL   HW1     2372   -0.573061764    0.797178686    0.165562078
  776 SOL   HW2     2373    0.085235655    1.351280570    1.622862697
  777 SOL   OW      2374   -0.015910193    0.155558735    0.073044196
  777 SOL   HW1     2375    0.127425998   -1.046955585    0.410674810
  777 SOL   HW2     2376    0.667687654    0.126329511    0.504224122
  778 SOL   OW      2377    0.068669230    0.888177454   -0.553108037
  778 SOL   HW1     2378    0.927308202   -0.123941951   -1.711260557
  778 SOL   HW2     2379    0.968398631   -0.242946699   -0.724060357
  779 SOL   OW      2380   -0.720169246    0.032127678    0.412104666
  779 SOL   HW1     2381    0.345520347   -1.605139613   -1.267616987
  779 SOL   HW2     2382    0.932551622   -2.745723963    1.615865707
  780 SOL   OW      2383   -0.022960287    0.136458024    0.001637938
  780 SOL   HW1     2384   -2.853913069   -0.472450674    2.591691494
  780 SOL   HW2     2385   -1.161609650   -1.476565480    3.682663202
  781 SOL   OW      2386   -0.385410726   -0.120310791    0.172398284
  781 SOL   HW1     2387    1.556205511    0.489311546   -1.919856548
  781 SOL   HW2     2388   -0.237153992   -1.129352570   -0.663979113
  782 SOL   OW      2389   -0.297047198   -0.398365140   -0.035603300
  782 SOL   HW1     2390    2.676939011   -1.304119825   -0.278154612
  782 SOL   HW2     2391   -0.400737852   -2.250690222    1.324625373
  783 SOL   OW      2392   -0.189072505   -0.112361826    0.799764574
  783 SOL   HW1     2393    1.725625038   -2.943021297   -0.319909513
  783 SOL   HW2     2394    2.309213638   -0.361187696   -2.419068098
  784 SOL   OW      2395   -0.136636481   -0.288836509   -0.297486454
  784 SOL   HW1     2396    2.012240887    2.277530909    0.199621782
  784 SOL   HW2     2397    0.121957168   -0.156371936    0.797263980
  785 SOL   OW      2398   -0.337300509    0.415011406   -0.007038568
  785 SOL   HW1     2399    0.294718474   -0.853808582   -3.855711460
  785 SOL   HW2     2400   -0.946607113    0.451645702   -0.507528424
  786 SOL   OW      2401    0.414737284    0.099924929    0.315212339
  786 SOL   HW1     2402    0.904456675   -1.423454046    1.243639112
  786 SOL   HW2     2403    0.460532933    1.220408082   -1.224901438
  787 SOL   OW      2404    0.860485971   -0.372402191   -0.502117336
  787 SOL   HW1     2405    1.156700611   -0.308581442   -1.300658107
  787 SOL   HW2     2406    1.262321234   -1.783108592   -3.498889208
  788 SOL   OW      2407    0.450308710   -0.224707529    0.217861295
  788 SOL   HW1     2408   -1.512096643   -2.775482178    0.254011005
  788 SOL   HW2     2409   -0.340300411   -1.324239254   -1.079306126
  789 SOL   OW      2410   -0.286692530   -0.317718446   -0.048383262
  789 SOL   HW1     2411    1.397377014   -3.611235857   -0.933216751
  789 SOL   HW2     2412    0.518197775    0.820168972   -1.076784849
  790 SOL   OW      2413    0.029935367   -0.794817328    0.755572081
  790 SOL   HW1     2414    1.424967647    2.418672323   -0.036632467
  790 SOL   HW2     2415    0.766249239   -0.378472716   -4.521558285
  791 SOL   OW      2416    0.321523786   -0.575784683    0.827420890
  791 SOL   HW1     2417    1.139453292   -2.469055414   -0.371086001
  791 SOL   HW2     2418    3.513845921    1.112351537    1.310416579
  792 SOL   OW      2419   -0.070615314    0.373029530    0.733395994
  792 SOL   HW1     2420    1.736716986    1.672489047    3.858719349
  792 SOL   HW2     2421    1.012215853   -0.028757954   -2.902308226
  793 SOL   OW      2422    0.406167001   -0.146342948    0.015601289
  793 SOL   HW1     2423    1.074151158   -1.681235433    0.559479833
  793 SOL   HW2     2424   -1.610007048   -0.848007858    0.081731848
  794 SOL   OW      2425   -0.069136888    0.442827255   -0.450599551
  794 SOL   HW1     2426    1.182029843   -0.722462296    1.830038548
  794 SOL   HW2     2427   -0.542918801   -1.699153662   -0.555967808
  795 SOL   OW      2428   -0.957580209    0.297715306    0.382735610
  795 SOL   HW1     2429    0.450300694   -0.046964217    0.109602146
  795 SOL   HW2     2430   -0.321071506   -3.722473383    1.537181377
  796 SOL   OW      2431    1.073686600    0.089694604   -0.521038830
  796 SOL   HW1     2432    1.073237062   -0.334718108    1.183323026
  796 SOL   HW2     2433   -2.268752575   -1.075300574    1.404397368
  797 SOL   OW      2434   -0.227029398   -0.059912771    0.015419235
  797 SOL   HW1     2435    1.350622773   -1.161555409   -0.128751278
  797 SOL   HW2     2436    2.548179626   -0.562192321   -0.634637296
  798 SOL   OW      2437    0.394597620   -0.395723701   -0.286478519
  798 SOL   HW1     2438   -0.695503175   -1.779773593   -3.614852905
  798 SOL   HW2     2439    1.845106959    0.427496523    1.896754503
  799 SOL   OW      2440   -0.440262020    0.850111604   -0.258647591
  799 SOL   HW1     2441   -1.502611160    0.110021017    0.649074256
  799 SOL   HW2     2442   -0.103407890   -2.678641558   -0.620269120
  800 SOL   OW      2443    0.078508683    0.462496430   -0.273402333
  800 SOL   HW1     2444    0.407080859    0.253247976   -1.426513672
  800 SOL   HW2     2445    0.807037711   -1.548698545    2.034416437
  801 SOL   OW      2446   -0.549530864   -0.447614640    0.323272377
  801 SOL   HW1     2447   -2.316569328    0.743830740   -0.673587739
  801 SOL   HW2     2448   -2.140886068    1.151212454    2.353791475
  802 SOL   OW      2449    0.272367477   -0.033816334    0.062040046
  802 SOL   HW1     2450   -2.479864597    0.275413156   -1.183274984
  802 SOL   HW2     2451   -0.602548957   -0.712633193   -1.834802151
  803 SOL   OW      2452   -0.960822582   -0.832852185   -0.472384393
  803 SOL   HW1     2453    1.034862041    0.715981781   -1.935988069
  803 SOL   HW2     2454   -1.541477799    0.823294520   -0.269240141
  804 SOL   OW      2455    0.216524735    0.120761462   -0.204917163
  804 SOL   HW1     2456    0.627720892   -1.628597021   -0.691472530
  804 SOL   HW2     2457    1.252321243    1.598148465    0.096608512
  805 SOL   OW      2458    0.130873442   -0.401419848    0.652492523
  805 SOL   HW1     2459    1.397825480   -1.987003565    1.988311768
  805 SOL   HW2     2460    0.068607755   -0.243000060    2.127704859
  806 SOL   OW      2461   -0.568707108   -0.560836017    0.228999808
  806 SOL   HW1     2462    2.193756819    1.929888248    2.777972460
  806 SOL   HW2     2463   -3.124345303   -1.703013778   -0.879946470
  807 SOL   OW      2464    0.253637195    0.447409362    0.030435981
  807 SOL   HW1     2465    0.675740898    1.397274017   -0.198914826
  807 SOL   HW2     2466    1.262488842   -0.546211243    0.973159194
  808 SOL   OW      2467   -0.566645026    0.103949651    0.233347863
  808 SOL   HW1     2468    0.592986584    0.554472506   -0.764529288
  808 SOL   HW2     2469   -0.106110327   -1.343100190    0.969323874
  809 SOL   OW      2470    0.828535378    0.175408259   -0.335385948
  809 SOL   HW1     2471   -1.714600682    1.002061367    0.906750798
  809 SOL   HW2     2472    0.890244246   -0.208906710   -0.808643699
  810 SOL   OW      2473    0.337087423    0.491563171   -0.318911016
  810 SOL   HW1     2474   -2.157694578   -0.818686545    1.078910947
  810 SOL   HW2     2475   -1.709627151    1.475663185   -2.894807577
  811 SOL   OW      2476   -0.023310846   -0.222425431   -0.180433467
  811 SOL   HW1     2477   -0.341636896   -0.783086121    3.308887482
  811 SOL   HW2     2478   -0.817695856    1.707958579   -0.881451488
  812 SOL   OW      2479   -0.802801967    0.048502285    0.192145213
  812 SOL   HW1     2480    1.398654103    3.535349369   -0.168801695
  812 SOL   HW2     2481    0.180279106    0.120822787   -1.984410048
  813 SOL   OW      2482    0.687750340   -0.128527448   -0.049746793
  813 SOL   HW1     2483   -2.356959105   -0.088911854   -1.667620897
  813 SOL   HW2     2484   -0.370140135    3.645155430   -1.399756074
  814 SOL   OW      2485    0.205064401   -0.092233583   -0.050559543
  814 SOL   HW1     2486   -1.308968067    0.239437714   -1.054915428
  814 SOL   HW2     2487    2.110967159   -0.462746114    1.131636024
  815 SOL   OW      2488   -0.503340542   -0.043980237    0.532068491
  815 SOL   HW1     2489    2.271825314    0.784375489    0.486348540
  815 SOL   HW2     2490    2.287208319    1.431394339   -3.658527613
  816 SOL   OW      2491    0.012108240    0.040482748   -0.523681045
  816 SOL   HW1     2492    2.283410072    1.236594200    2.821628571
  816 SOL   HW2     2493   -0.396405041   -1.208816767    0.969889820
  817 SOL   OW      2494   -0.247942179    0.183985710    0.121739715
  817 SOL   HW1     2495    2.461275339   -0.727663279    0.861565888
  817 SOL   HW2     2496    0.940293968   -1.643548131    0.434780687
  818 SOL   OW      2497    0.059729751   -0.605774283   -0.294962376
  818 SOL   HW1     2498   -0.184570879    1.884765506   -0.951512039
  818 SOL   HW2     2499   -0.257292300   -0.694044530   -0.590644062
  819 SOL   OW      2500   -1.184557557    0.306315005   -0.263105035
  819 SOL   HW1     2501   -0.526048005    1.617468238    1.510743141
  819 SOL   HW2     2502    1.057391047   -0.219962716   -0.206529140
  820 SOL   OW      2503    0.055394769   -0.054687731    0.442099869
  820 SOL   HW1     2504   -1.115394473   -0.091032915   -0.512006938
  820 SOL   HW2     2505    0.952677071    2.727740526    1.576011181
  821 SOL   OW      2506   -0.716216564    0.316771775   -0.532212853
  821 SOL   HW1     2507    1.717996836    0.110346541   -0.448920876
  821 SOL   HW2     2508   -1.293588281   -2.584712982    0.271868140
  822 SOL   OW      2509   -0.330384254    0.128762156   -0.183769524
  822 SOL   HW1     2510   -1.156418800    1.109688997    1.688461065
  822 SOL   HW2     2511    1.970337629    1.171340108   -0.788711667
  823 SOL   OW      2512   -0.027140984    0.374300987    0.006859341
  823 SOL   HW1     2513   -0.923435092    0.063325979    1.617356896
  823 SOL   HW2     2514    1.453161359    1.157671809   -0.274002582
  824 SOL   OW      2515   -0.072878875   -0.656705081   -0.043991171
  824 SOL   HW1     2516   -0.717900991   -0.011697869   -0.870003700
  824 SOL   HW2     2517    1.618350029   -3.031295300   -0.958466291
  825 SOL   OW      2518    0.253880411   -0.201716229   -0.348868847
  825 SOL   HW1     2519    1.618848920   -1.397319555    0.575877726
  825 SOL   HW2     2520   -2.333992004   -1.699508190   -1.550800800
  826 SOL   OW      2521    0.431191891   -0.292072922   -0.819348097
  826 SOL   HW1     2522    3.597974300    1.049088240    0.297514737
  826 SOL   HW2     2523    0.610382020    0.944212794    0.353518069
  827 SOL   OW      2524   -0.069908641    0.158178493   -0.157480150
  827 SOL   HW1     2525   -0.081035070   -0.151178658    1.127771497
  827 SOL   HW2     2526    0.026530236   -0.063019268   -0.607973516
  828 SOL   OW      2527    0.105255239    0.249582022    0.452507824
  828 SOL   HW1     2528   -1.409445763   -3.002650738    1.615326881
  828 SOL   HW2     2529    3.488607883    0.381713271    0.705977142
  829 SOL   OW      2530    0.638321996    0.151484832   -0.063203655
  829 SOL   HW1     2531   -2.369418383    2.056588650   -1.653925300
  829 SOL   HW2     2532    0.875618100    0.286133975   -1.785959601
  830 SOL   OW      2533    0.388480723   -0.077462770   -0.035380010
  830 SOL   HW1     2534    0.376877695    1.027140856    0.632371962
  830 SOL   HW2     2535   -1.937847614    0.924163461    2.134405851
  831 SOL   OW      2536    0.146153629    0.373653501    0.156442866
  831 SOL   HW1     2537   -0.327165097    0.355192393   -1.416552782
  831 SOL   HW2     2538    0.315847158    1.637632847    0.213588804
  832 SOL   OW      2539   -0.269571990    0.384331584   -0.090849914
  832 SOL   HW1     2540   -1.052875161    0.641355336    0.856731415
  832 SOL   HW2     2541   -0.972559571   -1.970573425    2.449787855
  833 SOL   OW      2542    0.567726552    0.193794444   -0.114999831
  833 SOL   HW1     2543    1.847931385    1.466540813    3.162324190
  833 SOL   HW2     2544   -0.451263428   -0.930682123    0.278191447
  834 SOL   OW      2545    0.207885072    0.378561586   -0.351157457
  834 SOL   HW1     2546    0.851691902    1.922381759    4.612896442
  834 SOL   HW2     2547   -0.679215431    3.529328346   -1.280407786
  835 SOL   OW      2548   -0.237556800    0.037541930    0.013989539
  835 SOL   HW1     2549    1.812400699    0.770762205   -0.961455643
  835 SOL   HW2     2550    0.082557954   -3.460779190    0.117891416
  836 SOL   OW      2551    0.017469499   -0.215575308   -0.490426689
  836 SOL   HW1     2552    2.210880756   -0.834446490    0.744017780
  836 SOL   HW2     2553    0.493668377    1.992705226   -1.559513927
  837 SOL   OW      2554   -0.028461494   -0.179322928    0.417041332
  837 SOL   HW1     2555    0.204053164    0.747373819    1.001262069
  837 SOL   HW2     2556    0.130125105   -2.453725100   -0.459611267
  838 SOL   OW      2557    0.412939787   -0.128588304   -0.103335485
  838 SOL   HW1     2558    0.297965288   -1.150598407   -1.796458125
  838 SOL   HW2     2559    0.276507080   -1.079888701    0.275293976
  839 SOL   OW      2560   -0.024365455    0.355147779    0.217566982
  839 SOL   HW1     2561    0.279812604    0.828283429   -2.681919575
  839 SOL   HW2     2562   -1.372508764   -1.719689369    1.739149809
  840 SOL   OW      2563   -0.102485858   -0.416633308    0.537943602
  840 SOL   HW1     2564   -0.620927572    0.806995511    1.708889484
  840 SOL   HW2     2565   -0.277585268   -0.510164618    0.048020542
  841 SOL   OW      2566   -0.051556282    1.291961312   -0.837275028
  841 SOL   HW1     2567    0.455471486    0.061280064   -0.115786679
  841 SOL   HW2     2568    1.862550259    1.188518167   -0.906357050
  842 SOL   OW      2569   -0.538014054    0.308482200    0.421929061
  842 SOL   HW1     2570    1.652108073    1.597103953    1.000992179
  842 SOL   HW2     2571   -1.994703054   -0.338367224   -0.503922760
  843 SOL   OW      2572   -1.001283526    0.380821437    0.543248177
  843 SOL   HW1     2573    1.393884778   -0.579191029    1.196299911
  843 SOL   HW2     2574   -2.003504276   -3.284737587    1.153789878
  844 SOL   OW      2575    0.308662772    0.200936720   -0.113935240
  844 SOL   HW1     2576    1.070725441    2.083008051    0.532134712
  844 SOL   HW2     2577    2.260684013    1.512534261    0.317626208
  845 SOL   OW      2578   -0.209448650    0.043995097   -0.367703110
  845 SOL   HW1     2579   -1.487331033   -2.365825415   -3.558509588
  845 SOL   HW2     2580    0.193619221   -1.215785623   -0.818264246
  846 SOL   OW      2581    0.254287183   -0.341514677    0.068793245
  846 SOL   HW1     2582    0.357924342    0.572616816   -2.841802597
  846 SOL   HW2     2583    2.073011398    0.239313915    1.190688014
  847 SOL   OW      2584   -0.364241809   -0.254713297   -0.208316281
  847 SOL   HW1     2585   -0.144085303    0.453839779   -2.041391134
  847 SOL   HW2     2586    1.878026009    1.215469956   -0.253226876
  848 SOL   OW      2587   -0.156733900    0.280475110    0.183123231
  848 SOL   HW1     2588    0.682179689   -0.342872918    0.108139820
  848 SOL   HW2     2589    0.407302111   -3.435529470   -2.132528782
  849 SOL   OW      2590    0.086420946   -0.422186047    0.313011378
  849 SOL   HW1     2591    0.339690238    0.344813675    0.788644969
  849 SOL   HW2     2592    0.071340270    1.034816384    2.596438646
  850 SOL   OW      2593   -0.144148156    0.200297803   -0.996341228
  850 SOL   HW1     2594   -1.264456272    0.823914766   -3.037334919
  850 SOL   HW2     2595    0.487879962   -0.027741622   -0.272458315
  851 SOL   OW      2596    0.167137548   -0.055850867    0.101703361
  851 SOL   HW1     2597   -0.039332699   -2.434065104    2.255784988
  851 SOL   HW2     2598   -0.906656921    2.089857578    1.171422005
  852 SOL   OW      2599   -0.173309729   -0.055048600    0.378238678
  852 SOL   HW1     2600   -1.100835919    1.016625762    0.142103285
  852 SOL   HW2     2601   -1.628428221    2.250489235    1.352775216
  853 SOL   OW      2602   -0.524383724    0.283793986    0.331303775
  853 SOL   HW1     2603    0.734414279   -0.903096259   -0.865706503
  853 SOL   HW2     2604    0.185321718    1.304292202    0.730661750
  854 SOL   OW      2605   -0.421246797    0.005504960    0.631995022
  854 SOL   HW1     2606   -3.216424227    1.620586276   -0.501006246
  854 SOL   HW2     2607    0.292186677   -1.770646930    2.144014359
  855 SOL   OW      2608   -0.387560368   -0.443708122   -0.142099366
  855 SOL   HW1     2609    1.867297173    0.105407394    1.510962963
  855 SOL   HW2     2610   -0.506769478   -2.694519281   -4.237838268
  856 SOL   OW      2611    0.360430628    0.103697211   -0.342638701
  856 SOL   HW1     2612   -2.160795450    0.218385234    1.647828698
  856 SOL   HW2     2613    0.557841361    0.550035357    0.429086536
  857 SOL   OW      2614   -0.469302744    0.137393504    0.314378291
  857 SOL   HW1     2615   -1.284456611   -0.341944605    0.762550116
  857 SOL   HW2     2616    0.422382087   -1.091827393    1.791290164
  858 SOL   OW      2617    0.199612722    0.310033739    0.217700750
  858 SOL   HW1     2618   -1.522832513   -0.429447085   -0.646266341
  858 SOL   HW2     2619    0.165390506   -1.642438531   -1.283200145
  859 SOL   OW      2620    0.015226586   -0.283548146   -0.092057049
  859 SOL   HW1     2621    2.727343798    3.297560453    0.385735601
  859 SOL   HW2     2622    0.514474332    1.314620376    1.589223385
  860 SOL   OW      2623    0.049220681   -0.599874973    0.711851478
  860 SOL   HW1     2624    1.713593483   -3.793097973    1.536177993
  860 SOL   HW2     2625    1.275443077    0.370627344   -4.636970997
  861 SOL   OW      2626    0.350768179   -0.174833253    0.193312258
  861 SOL   HW1     2627   -0.250413775   -3.161707163   -0.822779536
  861 SOL   HW2     2628    1.102842569   -0.387014449   -1.500601768
  862 SOL   OW      2629   -0.326414883   -0.369578511    0.022477005
  862 SOL   HW1     2630   -2.336429834   -1.753930569   -0.447300643
  862 SOL   HW2     2631   -1.567959070   -0.067180298   -1.003043175
  863 SOL   OW      2632   -0.023244023   -0.600992084    0.569899976
  863 SOL   HW1     2633   -0.217229977    0.824433386   -0.369990975
  863 SOL   HW2     2634    2.546725750   -1.239852071   -2.189191818
  864 SOL   OW      2635   -0.412605584    0.183551639   -0.263517737
  864 SOL   HW1     2636   -0.954942703   -0.312231034   -0.643706918
  864 SOL   HW2     2637    3.713986874   -0.582304955    2.040892839
  865 CL    CL      2638   -0.483219624   -0.046950914   -0.061325755
END
BOX
    3.000000000    3.000000000    3.000000000
END
