Protein in water
 2638
    1ACE    CH3    1   0.837   1.239   1.294
    1ACE   HH31    2   0.825   1.167   1.374
    1ACE   HH32    3   0.802   1.335   1.328
    1ACE   HH33    4   0.777   1.207   1.210
    1ACE      C    5   0.983   1.248   1.255
    1ACE      O    6   1.044   1.149   1.213
    2ALA      N    7   1.044   1.361   1.264
    2ALA     HN    8   0.996   1.443   1.298
    2ALA     CA    9   1.185   1.368   1.225
    2ALA     HA   10   1.228   1.267   1.229
    2ALA     CB   11   1.191   1.421   1.081
    2ALA    HB1   12   1.136   1.356   1.011
    2ALA    HB2   13   1.146   1.522   1.072
    2ALA    HB3   14   1.294   1.428   1.044
    2ALA      C   15   1.263   1.454   1.322
    2ALA      O   16   1.221   1.563   1.362
    3ARG      N   17   1.378   1.412   1.364
    3ARG     HN   18   1.414   1.323   1.333
    3ARG     CA   19   1.453   1.494   1.458
    3ARG     HA   20   1.417   1.598   1.449
    3ARG     CB   21   1.429   1.442   1.602
    3ARG    HB1   22   1.475   1.341   1.611
    3ARG    HB2   23   1.475   1.353   1.611
    3ARG     CG   24   1.479   1.534   1.717
    3ARG    HG1   25   1.430   1.633   1.708
    3ARG    HG2   26   1.432   1.621   1.711
    3ARG     CD   27   1.455   1.473   1.855
    3ARG    HD1   28   1.507   1.375   1.862
    3ARG    HD2   29   1.504   1.386   1.864
    3ARG     NE   30   1.503   1.566   1.961
    3ARG     HE   31   1.545   1.657   1.936
    3ARG     CZ   32   1.497   1.544   2.092
    3ARG    NH1   33   1.449   1.435   2.145
    3ARG   HH11   34   1.414   1.367   2.076
    3ARG   HH12   35   1.448   1.426   2.246
    3ARG    NH2   36   1.543   1.635   2.172
    3ARG   HH21   37   1.581   1.720   2.129
    3ARG   HH22   38   1.538   1.617   2.272
    3ARG      C   39   1.600   1.494   1.423
    3ARG      O   40   1.660   1.391   1.395
    4ASN      N   41   1.665   1.606   1.424
    4ASN     HN   42   1.617   1.692   1.447
    4ASN     CA   43   1.807   1.606   1.390
    4ASN     HA   44   1.847   1.504   1.407
    4ASN     CB   45   1.825   1.647   1.241
    4ASN    HB1   46   1.932   1.649   1.215
    4ASN    HB2   47   1.791   1.751   1.227
    4ASN     CG   48   1.752   1.562   1.137
    4ASN    OD1   49   1.647   1.598   1.085
    4ASN    ND2   50   1.803   1.446   1.103
    4ASN   HD21   51   1.739   1.391   1.044
    4ASN   HD22   52   1.885   1.415   1.154
    4ASN      C   53   1.884   1.699   1.481
    4ASN      O   54   1.843   1.812   1.508
    5CT3      N   55   1.995   1.658   1.532
    5CT3     HN   56   2.030   1.566   1.511
    5CT3    CH3   57   2.071   1.746   1.620
    5CT3   HH31   58   2.131   1.814   1.561
    5CT3   HH32   59   2.004   1.804   1.682
    5CT3   HH33   60   2.136   1.688   1.683
    6SOL     OW   61   0.230   0.628   0.113
    6SOL    HW1   62   0.137   0.626   0.150
    6SOL    HW2   63   0.231   0.589   0.021
    7SOL     OW   64   0.225   0.275   0.996
    7SOL    HW1   65   0.260   0.258   1.088
    7SOL    HW2   66   0.137   0.230   0.984
    8SOL     OW   67   0.019   0.368   0.647
    8SOL    HW1   68  -0.063   0.411   0.686
    8SOL    HW2   69  -0.009   0.295   0.584
    9SOL     OW   70   0.569   1.275   1.165
    9SOL    HW1   71   0.476   1.268   1.128
    9SOL    HW2   72   0.580   1.364   1.209
   10SOL     OW   73   1.555   1.511   0.703
   10SOL    HW1   74   1.498   1.495   0.784
   10SOL    HW2   75   1.496   1.521   0.623
   11SOL     OW   76   1.135   0.703   0.717
   11SOL    HW1   77   1.192   0.781   0.692
   11SOL    HW2   78   1.075   0.729   0.793
   12SOL     OW   79   1.755   0.607   0.231
   12SOL    HW1   80   1.743   0.594   0.132
   12SOL    HW2   81   1.725   0.526   0.280
   13SOL     OW   82   0.768   1.144   1.023
   13SOL    HW1   83   0.690   1.161   1.083
   13SOL    HW2   84   0.802   1.231   0.987
   14SOL     OW   85   0.850   0.798   1.823
   14SOL    HW1   86   0.846   0.874   1.888
   14SOL    HW2   87   0.872   0.834   1.732
   15SOL     OW   88   0.685   1.012   0.665
   15SOL    HW1   89   0.754   0.996   0.735
   15SOL    HW2   90   0.612   1.069   0.703
   16SOL     OW   91   0.686   1.161   1.803
   16SOL    HW1   92   0.746   1.240   1.817
   16SOL    HW2   93   0.600   1.192   1.762
   17SOL     OW   94   0.335   1.435   1.061
   17SOL    HW1   95   0.257   1.404   1.008
   17SOL    HW2   96   0.393   1.493   1.004
   18SOL     OW   97   0.438   0.392   1.499
   18SOL    HW1   98   0.520   0.336   1.508
   18SOL    HW2   99   0.357   0.334   1.503
   19SOL     OW  100   1.603   0.447   0.737
   19SOL    HW1  101   1.529   0.493   0.687
   19SOL    HW2  102   1.654   0.515   0.790
   20SOL     OW  103   0.231   1.713   0.483
   20SOL    HW1  104   0.265   1.790   0.537
   20SOL    HW2  105   0.275   1.713   0.393
   21SOL     OW  106   1.127   1.341   1.690
   21SOL    HW1  107   1.174   1.341   1.778
   21SOL    HW2  108   1.079   1.254   1.679
   22SOL     OW  109   0.230   1.434   0.538
   22SOL    HW1  110   0.204   1.530   0.538
   22SOL    HW2  111   0.159   1.380   0.583
   23SOL     OW  112   0.240   1.091   0.886
   23SOL    HW1  113   0.254   1.007   0.938
   23SOL    HW2  114   0.185   1.155   0.941
   24SOL     OW  115   0.620   1.786   1.439
   24SOL    HW1  116   0.528   1.769   1.474
   24SOL    HW2  117   0.648   1.878   1.465
   25SOL     OW  118   0.606   0.964   0.123
   25SOL    HW1  119   0.613   1.048   0.069
   25SOL    HW2  120   0.652   0.977   0.211
   26SOL     OW  121   1.594   0.114   1.480
   26SOL    HW1  122   1.576   0.181   1.408
   26SOL    HW2  123   1.591   0.160   1.569
   27SOL     OW  124   0.122   0.643   0.563
   27SOL    HW1  125   0.077   0.555   0.580
   27SOL    HW2  126   0.121   0.697   0.647
   28SOL     OW  127   1.842   1.767   0.359
   28SOL    HW1  128   1.896   1.738   0.439
   28SOL    HW2  129   1.872   1.857   0.330
   29SOL     OW  130   0.027   1.596   0.117
   29SOL    HW1  131   0.008   1.500   0.138
   29SOL    HW2  132  -0.006   1.654   0.192
   30SOL     OW  133   1.689   0.922   0.612
   30SOL    HW1  134   1.784   0.893   0.620
   30SOL    HW2  135   1.681   0.987   0.537
   31SOL     OW  136   1.641   1.108   0.432
   31SOL    HW1  137   1.727   1.110   0.380
   31SOL    HW2  138   1.655   1.155   0.520
   32SOL     OW  139   0.113   0.737   1.597
   32SOL    HW1  140   0.201   0.724   1.642
   32SOL    HW2  141   0.100   0.834   1.575
   33SOL     OW  142   0.613   1.365   0.726
   33SOL    HW1  143   0.564   1.278   0.735
   33SOL    HW2  144   0.590   1.408   0.639
   34SOL     OW  145   1.293   1.228   1.423
   34SOL    HW1  146   1.330   1.155   1.365
   34SOL    HW2  147   1.345   1.233   1.508
   35SOL     OW  148   0.809   0.004   0.502
   35SOL    HW1  149   0.849   0.095   0.493
   35SOL    HW2  150   0.709   0.012   0.508
   36SOL     OW  151   0.197   0.976   1.264
   36SOL    HW1  152   0.286   0.931   1.250
   36SOL    HW2  153   0.124   0.911   1.245
   37SOL     OW  154   1.525   0.999   0.190
   37SOL    HW1  155   1.462   0.923   0.203
   37SOL    HW2  156   1.573   1.017   0.276
   38SOL     OW  157   1.187   1.792   1.616
   38SOL    HW1  158   1.211   1.852   1.540
   38SOL    HW2  159   1.194   1.697   1.586
   39SOL     OW  160   0.317   0.251   1.801
   39SOL    HW1  161   0.388   0.322   1.807
   39SOL    HW2  162   0.229   0.290   1.829
   40SOL     OW  163   1.667   1.714   0.572
   40SOL    HW1  164   1.626   1.691   0.484
   40SOL    HW2  165   1.649   1.640   0.637
   41SOL     OW  166   0.598   0.729   0.270
   41SOL    HW1  167   0.622   0.798   0.202
   41SOL    HW2  168   0.520   0.762   0.324
   42SOL     OW  169   1.281   0.345   0.944
   42SOL    HW1  170   1.195   0.295   0.931
   42SOL    HW2  171   1.343   0.291   1.000
   43SOL     OW  172   1.576   1.662   0.307
   43SOL    HW1  173   1.665   1.708   0.310
   43SOL    HW2  174   1.555   1.638   0.212
   44SOL     OW  175   0.807   0.605   1.465
   44SOL    HW1  176   0.760   0.602   1.554
   44SOL    HW2  177   0.756   0.550   1.399
   45SOL     OW  178   1.394   0.469   1.674
   45SOL    HW1  179   1.374   0.512   1.762
   45SOL    HW2  180   1.472   0.407   1.683
   46SOL     OW  181   0.973   0.890   1.572
   46SOL    HW1  182   1.019   0.806   1.543
   46SOL    HW2  183   0.917   0.924   1.497
   47SOL     OW  184   0.991   0.410   1.242
   47SOL    HW1  185   0.914   0.444   1.296
   47SOL    HW2  186   0.957   0.359   1.163
   48SOL     OW  187   1.041   0.701   0.429
   48SOL    HW1  188   1.067   0.697   0.525
   48SOL    HW2  189   0.956   0.650   0.415
   49SOL     OW  190   0.076   0.811   0.789
   49SOL    HW1  191   0.175   0.799   0.798
   49SOL    HW2  192   0.052   0.906   0.810
   50SOL     OW  193   0.130   1.821   1.571
   50SOL    HW1  194   0.120   1.806   1.670
   50SOL    HW2  195   0.044   1.857   1.535
   51SOL     OW  196   0.865   0.348   0.195
   51SOL    HW1  197   0.924   0.411   0.146
   51SOL    HW2  198   0.884   0.254   0.166
   52SOL     OW  199   1.719   0.585   1.831
   52SOL    HW1  200   1.693   0.674   1.795
   52SOL    HW2  201   1.717   0.517   1.758
   53SOL     OW  202   1.362   1.144   0.545
   53SOL    HW1  203   1.445   1.115   0.497
   53SOL    HW2  204   1.313   1.211   0.489
   54SOL     OW  205   0.550   0.196   0.885
   54SOL    HW1  206   0.545   0.191   0.985
   54SOL    HW2  207   0.552   0.292   0.856
   55SOL     OW  208   1.008   1.456   0.477
   55SOL    HW1  209   0.962   1.528   0.425
   55SOL    HW2  210   1.004   1.476   0.575
   56SOL     OW  211   0.351   1.801   0.853
   56SOL    HW1  212   0.401   1.715   0.859
   56SOL    HW2  213   0.416   1.878   0.850
   57SOL     OW  214   1.795   1.066   0.873
   57SOL    HW1  215   1.733   1.051   0.797
   57SOL    HW2  216   1.743   1.077   0.958
   58SOL     OW  217   0.321   0.943   0.242
   58SOL    HW1  218   0.403   0.982   0.200
   58SOL    HW2  219   0.294   0.861   0.193
   59SOL     OW  220   1.458   0.735   0.728
   59SOL    HW1  221   1.453   0.670   0.803
   59SOL    HW2  222   1.538   0.794   0.741
   60SOL     OW  223   0.461   1.266   1.727
   60SOL    HW1  224   0.411   1.267   1.641
   60SOL    HW2  225   0.398   1.248   1.803
   61SOL     OW  226   1.111   1.776   0.237
   61SOL    HW1  227   1.051   1.714   0.287
   61SOL    HW2  228   1.142   1.732   0.152
   62SOL     OW  229   0.202   0.285   1.498
   62SOL    HW1  230   0.122   0.345   1.485
   62SOL    HW2  231   0.192   0.236   1.584
   63SOL     OW  232   1.632   1.377   0.081
   63SOL    HW1  233   1.600   1.471   0.071
   63SOL    HW2  234   1.556   1.314   0.069
   64SOL     OW  235   0.464   1.743   0.323
   64SOL    HW1  236   0.497   1.782   0.409
   64SOL    HW2  237   0.540   1.736   0.258
   65SOL     OW  238   1.400   0.107   0.426
   65SOL    HW1  239   1.376   0.070   0.336
   65SOL    HW2  240   1.499   0.123   0.430
   66SOL     OW  241   0.249   1.785   1.241
   66SOL    HW1  242   0.306   1.720   1.291
   66SOL    HW2  243   0.233   1.752   1.148
   67SOL     OW  244   0.940   1.698   0.904
   67SOL    HW1  245   1.020   1.641   0.925
   67SOL    HW2  246   0.891   1.658   0.827
   68SOL     OW  247   0.382   0.700   0.480
   68SOL    HW1  248   0.427   0.610   0.477
   68SOL    HW2  249   0.288   0.689   0.513
   69SOL     OW  250   1.547   0.222   1.729
   69SOL    HW1  251   1.542   0.259   1.821
   69SOL    HW2  252   1.475   0.153   1.717
   70SOL     OW  253   0.614   0.122   0.117
   70SOL    HW1  254   0.712   0.100   0.124
   70SOL    HW2  255   0.583   0.105   0.024
   71SOL     OW  256   0.781   0.264   1.749
   71SOL    HW1  257   0.848   0.203   1.792
   71SOL    HW2  258   0.708   0.283   1.814
   72SOL     OW  259   1.351   0.590   1.433
   72SOL    HW1  260   1.379   0.547   1.518
   72SOL    HW2  261   1.376   0.686   1.434
   73SOL     OW  262   0.803   1.402   0.924
   73SOL    HW1  263   0.893   1.416   0.882
   73SOL    HW2  264   0.732   1.404   0.853
   74SOL     OW  265   0.922   0.503   0.899
   74SOL    HW1  266   0.897   0.494   0.803
   74SOL    HW2  267   0.970   0.421   0.930
   75SOL     OW  268   0.539   0.064   0.512
   75SOL    HW1  269   0.458   0.065   0.570
   75SOL    HW2  270   0.542   0.147   0.457
   76SOL     OW  271   1.434   1.188   0.041
   76SOL    HW1  272   1.466   1.112   0.098
   76SOL    HW2  273   1.342   1.215   0.071
   77SOL     OW  274   0.297   0.035   0.171
   77SOL    HW1  275   0.346   0.119   0.150
   77SOL    HW2  276   0.359  -0.030   0.216
   78SOL     OW  277   0.935   0.236   0.480
   78SOL    HW1  278   0.887   0.277   0.402
   78SOL    HW2  279   1.034   0.234   0.461
   79SOL     OW  280   1.076   0.683   1.464
   79SOL    HW1  281   0.996   0.622   1.467
   79SOL    HW2  282   1.157   0.630   1.440
   80SOL     OW  283   1.227   1.570   0.793
   80SOL    HW1  284   1.248   1.644   0.728
   80SOL    HW2  285   1.295   1.570   0.866
   81SOL     OW  286   0.459   1.152   0.741
   81SOL    HW1  287   0.388   1.125   0.806
   81SOL    HW2  288   0.433   1.124   0.648
   82SOL     OW  289   1.271   1.797   0.591
   82SOL    HW1  290   1.315   1.861   0.527
   82SOL    HW2  291   1.221   1.849   0.661
   83SOL     OW  292   1.032   0.549   0.016
   83SOL    HW1  293   0.991   0.631  -0.023
   83SOL    HW2  294   1.096   0.575   0.089
   84SOL     OW  295   0.078   0.556   1.386
   84SOL    HW1  296   0.170   0.555   1.345
   84SOL    HW2  297   0.072   0.630   1.453
   85SOL     OW  298   0.561   0.222   1.147
   85SOL    HW1  299   0.599   0.138   1.184
   85SOL    HW2  300   0.473   0.241   1.191
   86SOL     OW  301   0.866   0.454   0.642
   86SOL    HW1  302   0.834   0.526   0.580
   86SOL    HW2  303   0.890   0.373   0.589
   87SOL     OW  304   1.017   0.039   0.753
   87SOL    HW1  305   0.945   0.044   0.684
   87SOL    HW2  306   0.993  -0.030   0.822
   88SOL     OW  307   1.429   1.173   0.867
   88SOL    HW1  308   1.374   1.089   0.860
   88SOL    HW2  309   1.455   1.202   0.775
   89SOL     OW  310   1.466   0.590   0.992
   89SOL    HW1  311   1.436   0.495   0.999
   89SOL    HW2  312   1.539   0.606   1.058
   90SOL     OW  313   1.857   0.833   0.377
   90SOL    HW1  314   1.899   0.769   0.441
   90SOL    HW2  315   1.819   0.782   0.299
   91SOL     OW  316   0.488   1.385   0.174
   91SOL    HW1  317   0.401   1.370   0.221
   91SOL    HW2  318   0.471   1.411   0.079
   92SOL     OW  319   1.664   1.280   0.657
   92SOL    HW1  320   1.763   1.288   0.671
   92SOL    HW2  321   1.619   1.364   0.688
   93SOL     OW  322   1.390   0.575   0.078
   93SOL    HW1  323   1.336   0.554   0.159
   93SOL    HW2  324   1.481   0.534   0.087
   94SOL     OW  325   0.527   0.256   0.328
   94SOL    HW1  326   0.554   0.197   0.253
   94SOL    HW2  327   0.527   0.351   0.297
   95SOL     OW  328   1.638   1.099   1.079
   95SOL    HW1  329   1.643   1.180   1.138
   95SOL    HW2  330   1.552   1.101   1.028
   96SOL     OW  331   0.915   0.089   1.402
   96SOL    HW1  332   0.940   0.069   1.307
   96SOL    HW2  333   0.987   0.145   1.444
   97SOL     OW  334   0.980   1.116   1.719
   97SOL    HW1  335   0.881   1.122   1.729
   97SOL    HW2  336   1.003   1.036   1.663
   98SOL     OW  337   0.705   1.050   0.368
   98SOL    HW1  338   0.691   1.057   0.467
   98SOL    HW2  339   0.789   0.999   0.350
   99SOL     OW  340   0.410   0.813   1.251
   99SOL    HW1  341   0.496   0.825   1.301
   99SOL    HW2  342   0.368   0.726   1.278
  100SOL     OW  343   1.274   0.386   1.262
  100SOL    HW1  344   1.295   0.460   1.326
  100SOL    HW2  345   1.185   0.403   1.219
  101SOL     OW  346   0.064   1.564   1.331
  101SOL    HW1  347   0.018   1.646   1.297
  101SOL    HW2  348   0.162   1.583   1.340
  102SOL     OW  349   0.367   1.100   0.501
  102SOL    HW1  350   0.360   1.183   0.445
  102SOL    HW2  351   0.371   1.020   0.441
  103SOL     OW  352   0.566   0.537   0.865
  103SOL    HW1  353   0.578   0.603   0.791
  103SOL    HW2  354   0.612   0.571   0.948
  104SOL     OW  355   1.252   1.348   0.388
  104SOL    HW1  356   1.302   1.425   0.428
  104SOL    HW2  357   1.157   1.350   0.420
  105SOL     OW  358   1.582   0.639   0.472
  105SOL    HW1  359   1.551   0.700   0.545
  105SOL    HW2  360   1.632   0.691   0.403
  106SOL     OW  361   0.354   1.510   1.329
  106SOL    HW1  362   0.333   1.466   1.242
  106SOL    HW2  363   0.451   1.536   1.332
  107SOL     OW  364   0.402   0.751   1.598
  107SOL    HW1  365   0.470   0.806   1.551
  107SOL    HW2  366   0.442   0.663   1.625
  108SOL     OW  367   1.587   0.779   1.670
  108SOL    HW1  368   1.495   0.817   1.665
  108SOL    HW2  369   1.647   0.826   1.605
  109SOL     OW  370   1.013   0.105   1.770
  109SOL    HW1  371   1.019   0.190   1.718
  109SOL    HW2  372   1.045   0.029   1.713
  110SOL     OW  373   0.504   0.050   1.740
  110SOL    HW1  374   0.462  -0.007   1.670
  110SOL    HW2  375   0.438   0.119   1.772
  111SOL     OW  376   0.573   0.870   1.029
  111SOL    HW1  377   0.617   0.959   1.020
  111SOL    HW2  378   0.510   0.870   1.106
  112SOL     OW  379   1.360   0.862   1.045
  112SOL    HW1  380   1.285   0.862   0.979
  112SOL    HW2  381   1.397   0.770   1.054
  113SOL     OW  382   1.209   0.525   0.275
  113SOL    HW1  383   1.222   0.441   0.329
  113SOL    HW2  384   1.180   0.599   0.335
  114SOL     OW  385   0.307   0.213   1.231
  114SOL    HW1  386   0.284   0.250   1.321
  114SOL    HW2  387   0.277   0.118   1.225
  115SOL     OW  388   0.037   1.310   1.282
  115SOL    HW1  389   0.090   1.261   1.350
  115SOL    HW2  390   0.059   1.408   1.287
  116SOL     OW  391   0.732   0.634   1.064
  116SOL    HW1  392   0.791   0.608   0.988
  116SOL    HW2  393   0.704   0.730   1.053
  117SOL     OW  394   1.728   0.935   1.854
  117SOL    HW1  395   1.682   0.928   1.765
  117SOL    HW2  396   1.666   0.979   1.920
  118SOL     OW  397   0.307   0.063   0.618
  118SOL    HW1  398   0.296   0.157   0.651
  118SOL    HW2  399   0.302   0.000   0.695
  119SOL     OW  400   1.622   0.367   0.374
  119SOL    HW1  401   1.624   0.291   0.438
  119SOL    HW2  402   1.574   0.444   0.414
  120SOL     OW  403   1.023   0.766   0.966
  120SOL    HW1  404   1.038   0.787   1.062
  120SOL    HW2  405   0.993   0.671   0.957
  121SOL     OW  406   0.980   1.573   1.700
  121SOL    HW1  407   0.960   1.617   1.612
  121SOL    HW2  408   1.019   1.482   1.684
  122SOL     OW  409   0.350   0.898   1.804
  122SOL    HW1  410   0.426   0.942   1.852
  122SOL    HW2  411   0.385   0.851   1.722
  123SOL     OW  412   1.540   0.274   0.125
  123SOL    HW1  413   1.479   0.199   0.148
  123SOL    HW2  414   1.562   0.326   0.208
  124SOL     OW  415   1.303   0.838   0.042
  124SOL    HW1  416   1.337   0.745   0.057
  124SOL    HW2  417   1.321   0.865  -0.053
  125SOL     OW  418   1.068   1.333   0.849
  125SOL    HW1  419   1.075   1.249   0.794
  125SOL    HW2  420   1.130   1.402   0.813
  126SOL     OW  421   0.319   0.810   0.949
  126SOL    HW1  422   0.412   0.846   0.954
  126SOL    HW2  423   0.313   0.725   1.001
  127SOL     OW  424   0.339   0.509   1.006
  127SOL    HW1  425   0.287   0.426   0.989
  127SOL    HW2  426   0.416   0.514   0.942
  128SOL     OW  427   1.138   0.380   1.678
  128SOL    HW1  428   1.093   0.443   1.742
  128SOL    HW2  429   1.231   0.411   1.661
  129SOL     OW  430   1.160   0.207   1.477
  129SOL    HW1  431   1.160   0.271   1.554
  129SOL    HW2  432   1.188   0.255   1.394
  130SOL     OW  433   0.008   1.326   0.200
  130SOL    HW1  434  -0.085   1.347   0.169
  130SOL    HW2  435   0.018   1.227   0.213
  131SOL     OW  436   0.088   1.801   0.927
  131SOL    HW1  437   0.046   1.715   0.900
  131SOL    HW2  438   0.182   1.804   0.893
  132SOL     OW  439   0.504   1.568   0.910
  132SOL    HW1  440   0.570   1.642   0.919
  132SOL    HW2  441   0.548   1.489   0.868
  133SOL     OW  442   1.002   0.796   1.238
  133SOL    HW1  443   1.043   0.764   1.324
  133SOL    HW2  444   0.906   0.769   1.235
  134SOL     OW  445   0.040   0.544   1.114
  134SOL    HW1  446   0.125   0.511   1.073
  134SOL    HW2  447   0.053   0.559   1.212
  135SOL     OW  448   0.189   0.520   1.722
  135SOL    HW1  449   0.248   0.480   1.652
  135SOL    HW2  450   0.131   0.591   1.681
  136SOL     OW  451   1.369   0.950   1.660
  136SOL    HW1  452   1.408   1.039   1.680
  136SOL    HW2  453   1.379   0.930   1.563
  137SOL     OW  454   0.815   0.572   0.325
  137SOL    HW1  455   0.822   0.483   0.279
  137SOL    HW2  456   0.721   0.606   0.317
  138SOL     OW  457   1.657   0.604   1.206
  138SOL    HW1  458   1.619   0.535   1.268
  138SOL    HW2  459   1.739   0.568   1.162
  139SOL     OW  460   0.252   1.564   1.744
  139SOL    HW1  461   0.222   1.621   1.820
  139SOL    HW2  462   0.245   1.467   1.770
  140SOL     OW  463   0.671   0.464   1.269
  140SOL    HW1  464   0.637   0.375   1.239
  140SOL    HW2  465   0.697   0.518   1.189
  141SOL     OW  466   0.930   1.678   1.465
  141SOL    HW1  467   0.906   1.660   1.370
  141SOL    HW2  468   0.960   1.772   1.475
  142SOL     OW  469   0.473   0.500   0.191
  142SOL    HW1  470   0.534   0.580   0.195
  142SOL    HW2  471   0.378   0.531   0.198
  143SOL     OW  472   0.159   1.137   1.466
  143SOL    HW1  473   0.181   1.076   1.542
  143SOL    HW2  474   0.169   1.088   1.380
  144SOL     OW  475   1.347   1.059   1.234
  144SOL    HW1  476   1.371   0.996   1.160
  144SOL    HW2  477   1.257   1.099   1.216
  145SOL     OW  478   1.302   0.855   0.309
  145SOL    HW1  479   1.216   0.824   0.351
  145SOL    HW2  480   1.298   0.841   0.210
  146SOL     OW  481   1.252   1.731   1.128
  146SOL    HW1  482   1.336   1.736   1.074
  146SOL    HW2  483   1.229   1.635   1.146
  147SOL     OW  484   0.083   1.258   1.022
  147SOL    HW1  485   0.078   1.257   1.122
  147SOL    HW2  486   0.000   1.217   0.984
  148SOL     OW  487   0.688   1.662   1.716
  148SOL    HW1  488   0.632   1.743   1.725
  148SOL    HW2  489   0.740   1.666   1.630
  149SOL     OW  490   0.903   0.086   0.133
  149SOL    HW1  491   0.954   0.087   0.047
  149SOL    HW2  492   0.959   0.044   0.204
  150SOL     OW  493   1.726   0.135   0.523
  150SOL    HW1  494   1.799   0.118   0.456
  150SOL    HW2  495   1.695   0.048   0.561
  151SOL     OW  496   1.388   1.573   0.477
  151SOL    HW1  497   1.455   1.585   0.403
  151SOL    HW2  498   1.348   1.662   0.500
  152SOL     OW  499   0.130   1.794   1.851
  152SOL    HW1  500   0.089   1.720   1.904
  152SOL    HW2  501   0.194   1.845   1.909
  153SOL     OW  502   1.280   0.927   0.672
  153SOL    HW1  503   1.340   0.846   0.674
  153SOL    HW2  504   1.320   0.996   0.612
  154SOL     OW  505   0.672   1.616   0.154
  154SOL    HW1  506   0.681   1.626   0.055
  154SOL    HW2  507   0.632   1.527   0.175
  155SOL     OW  508   1.841   0.175   0.963
  155SOL    HW1  509   1.880   0.090   0.927
  155SOL    HW2  510   1.743   0.177   0.944
  156SOL     OW  511   0.263   0.326   0.720
  156SOL    HW1  512   0.184   0.377   0.686
  156SOL    HW2  513   0.254   0.311   0.818
  157SOL     OW  514   1.194   1.612   0.031
  157SOL    HW1  515   1.200   1.519   0.068
  157SOL    HW2  516   1.135   1.612  -0.049
  158SOL     OW  517   0.916   0.910   0.291
  158SOL    HW1  518   0.979   0.948   0.223
  158SOL    HW2  519   0.956   0.827   0.330
  159SOL     OW  520   1.504   1.607   0.044
  159SOL    HW1  521   1.412   1.644   0.051
  159SOL    HW2  522   1.542   1.627  -0.046
  160SOL     OW  523   0.372   1.288   1.490
  160SOL    HW1  524   0.359   1.381   1.456
  160SOL    HW2  525   0.288   1.236   1.477
  161SOL     OW  526   1.039   1.098   0.696
  161SOL    HW1  527   0.969   1.051   0.750
  161SOL    HW2  528   1.098   1.030   0.653
  162SOL     OW  529   1.014   0.236   0.971
  162SOL    HW1  530   1.006   0.200   0.878
  162SOL    HW2  531   1.012   0.160   1.036
  163SOL     OW  532   0.590   1.487   0.491
  163SOL    HW1  533   0.632   1.429   0.421
  163SOL    HW2  534   0.546   1.566   0.447
  164SOL     OW  535   1.709   0.385   1.381
  164SOL    HW1  536   1.782   0.454   1.385
  164SOL    HW2  537   1.737   0.310   1.322
  165SOL     OW  538   0.255   1.348   0.290
  165SOL    HW1  539   0.159   1.349   0.263
  165SOL    HW2  540   0.267   1.401   0.374
  166SOL     OW  541   0.105   1.013   1.726
  166SOL    HW1  542   0.028   0.980   1.780
  166SOL    HW2  543   0.190   0.983   1.768
  167SOL     OW  544   0.672   0.203   1.489
  167SOL    HW1  545   0.762   0.187   1.449
  167SOL    HW2  546   0.680   0.208   1.588
  168SOL     OW  547   0.075   0.345   0.033
  168SOL    HW1  548  -0.017   0.317   0.004
  168SOL    HW2  549   0.106   0.422  -0.023
  169SOL     OW  550   1.440   0.856   1.398
  169SOL    HW1  551   1.383   0.908   1.335
  169SOL    HW2  552   1.536   0.868   1.374
  170SOL     OW  553   0.072   0.166   0.318
  170SOL    HW1  554   0.055   0.249   0.264
  170SOL    HW2  555   0.162   0.129   0.296
  171SOL     OW  556   1.183   1.335   0.119
  171SOL    HW1  557   1.084   1.324   0.121
  171SOL    HW2  558   1.217   1.350   0.212
  172SOL     OW  559   0.613   0.842   1.431
  172SOL    HW1  560   0.669   0.923   1.414
  172SOL    HW2  561   0.672   0.762   1.434
  173SOL     OW  562   1.493   1.767   0.959
  173SOL    HW1  563   1.526   1.831   0.890
  173SOL    HW2  564   1.559   1.761   1.034
  174SOL     OW  565   0.716   0.565   1.708
  174SOL    HW1  566   0.735   0.630   1.782
  174SOL    HW2  567   0.776   0.485   1.717
  175SOL     OW  568   0.390   1.741   1.560
  175SOL    HW1  569   0.299   1.782   1.558
  175SOL    HW2  570   0.383   1.647   1.592
  176SOL     OW  571   1.674   0.883   1.254
  176SOL    HW1  572   1.647   0.794   1.217
  176SOL    HW2  573   1.675   0.951   1.181
  177SOL     OW  574   1.225   0.325   0.449
  177SOL    HW1  575   1.290   0.251   0.438
  177SOL    HW2  576   1.245   0.375   0.533
  178SOL     OW  577   0.594   0.745   0.652
  178SOL    HW1  578   0.644   0.830   0.633
  178SOL    HW2  579   0.506   0.747   0.604
  179SOL     OW  580   1.777   0.342   1.642
  179SOL    HW1  581   1.760   0.373   1.548
  179SOL    HW2  582   1.693   0.305   1.680
  180SOL     OW  583   1.730   0.934   1.517
  180SOL    HW1  584   1.768   1.025   1.532
  180SOL    HW2  585   1.722   0.917   1.418
  181SOL     OW  586   0.859   1.374   0.016
  181SOL    HW1  587   0.813   1.389   0.104
  181SOL    HW2  588   0.903   1.459  -0.014
  182SOL     OW  589   0.661   1.790   0.953
  182SOL    HW1  590   0.615   1.878   0.940
  182SOL    HW2  591   0.760   1.802   0.946
  183SOL     OW  592   0.859   0.956   0.861
  183SOL    HW1  593   0.913   0.887   0.909
  183SOL    HW2  594   0.827   1.025   0.927
  184SOL     OW  595   1.083   0.984   0.087
  184SOL    HW1  596   1.060   1.037   0.005
  184SOL    HW2  597   1.164   0.928   0.068
  185SOL     OW  598   1.861   1.569   0.851
  185SOL    HW1  599   1.790   1.557   0.781
  185SOL    HW2  600   1.862   1.490   0.911
  186SOL     OW  601   0.221   1.314   1.844
  186SOL    HW1  602   0.156   1.241   1.823
  186SOL    HW2  603   0.225   1.328   1.942
  187SOL     OW  604   0.079   1.240   0.653
  187SOL    HW1  605   0.078   1.193   0.741
  187SOL    HW2  606   0.161   1.212   0.602
  188SOL     OW  607   0.672   1.391   1.624
  188SOL    HW1  608   0.594   1.341   1.662
  188SOL    HW2  609   0.669   1.486   1.655
  189SOL     OW  610   1.824   0.192   1.227
  189SOL    HW1  611   1.820   0.102   1.271
  189SOL    HW2  612   1.827   0.181   1.128
  190SOL     OW  613   0.428   0.424   0.520
  190SOL    HW1  614   0.458   0.352   0.458
  190SOL    HW2  615   0.389   0.384   0.603
  191SOL     OW  616   0.317   0.547   1.280
  191SOL    HW1  617   0.355   0.488   1.352
  191SOL    HW2  618   0.357   0.521   1.192
  192SOL     OW  619   0.812   1.586   0.687
  192SOL    HW1  620   0.844   1.596   0.593
  192SOL    HW2  621   0.733   1.524   0.689
  193SOL     OW  622   1.424   0.214   1.112
  193SOL    HW1  623   1.476   0.149   1.167
  193SOL    HW2  624   1.375   0.277   1.173
  194SOL     OW  625   1.001   0.034   1.154
  194SOL    HW1  626   0.938  -0.038   1.123
  194SOL    HW2  627   1.094  -0.002   1.154
  195SOL     OW  628   0.770   1.330   0.301
  195SOL    HW1  629   0.724   1.243   0.318
  195SOL    HW2  630   0.861   1.327   0.342
  196SOL     OW  631   0.618   1.567   1.284
  196SOL    HW1  632   0.613   1.649   1.341
  196SOL    HW2  633   0.707   1.564   1.239
  197SOL     OW  634   1.352   0.052   0.168
  197SOL    HW1  635   1.387   0.011   0.084
  197SOL    HW2  636   1.262   0.014   0.188
  198SOL     OW  637   1.300   0.453   0.691
  198SOL    HW1  638   1.241   0.533   0.695
  198SOL    HW2  639   1.315   0.418   0.784
  199SOL     OW  640   1.593   0.221   0.882
  199SOL    HW1  641   1.509   0.220   0.936
  199SOL    HW2  642   1.595   0.304   0.826
  200SOL     OW  643   0.039   1.077   0.300
  200SOL    HW1  644   0.138   1.066   0.291
  200SOL    HW2  645  -0.001   0.991   0.332
  201SOL     OW  646   0.875   1.646   0.337
  201SOL    HW1  647   0.798   1.611   0.283
  201SOL    HW2  648   0.843   1.717   0.399
  202SOL     OW  649   0.230   0.628   1.975
  202SOL    HW1  650   0.137   0.626   2.012
  202SOL    HW2  651   0.231   0.589   1.883
  203SOL     OW  652   0.225   0.275   2.858
  203SOL    HW1  653   0.260   0.258   2.950
  203SOL    HW2  654   0.137   0.230   2.846
  204SOL     OW  655   0.019   0.368   2.509
  204SOL    HW1  656  -0.063   0.411   2.548
  204SOL    HW2  657  -0.009   0.295   2.446
  205SOL     OW  658   1.555   1.511   2.565
  205SOL    HW1  659   1.498   1.495   2.646
  205SOL    HW2  660   1.496   1.521   2.485
  206SOL     OW  661   1.135   0.703   2.579
  206SOL    HW1  662   1.192   0.781   2.554
  206SOL    HW2  663   1.075   0.729   2.655
  207SOL     OW  664   1.755   0.607   2.093
  207SOL    HW1  665   1.743   0.594   1.994
  207SOL    HW2  666   1.725   0.526   2.142
  208SOL     OW  667   0.768   1.144   2.885
  208SOL    HW1  668   0.690   1.161   2.945
  208SOL    HW2  669   0.802   1.231   2.849
  209SOL     OW  670   0.685   1.012   2.527
  209SOL    HW1  671   0.754   0.996   2.597
  209SOL    HW2  672   0.612   1.069   2.565
  210SOL     OW  673   0.335   1.435   2.923
  210SOL    HW1  674   0.257   1.404   2.870
  210SOL    HW2  675   0.393   1.493   2.866
  211SOL     OW  676   1.603   0.447   2.599
  211SOL    HW1  677   1.529   0.493   2.549
  211SOL    HW2  678   1.654   0.515   2.652
  212SOL     OW  679   0.231   1.713   2.345
  212SOL    HW1  680   0.265   1.790   2.399
  212SOL    HW2  681   0.275   1.713   2.255
  213SOL     OW  682   0.230   1.434   2.400
  213SOL    HW1  683   0.204   1.530   2.400
  213SOL    HW2  684   0.159   1.380   2.445
  214SOL     OW  685   0.240   1.091   2.748
  214SOL    HW1  686   0.254   1.007   2.800
  214SOL    HW2  687   0.185   1.155   2.803
  215SOL     OW  688   0.606   0.964   1.985
  215SOL    HW1  689   0.613   1.048   1.931
  215SOL    HW2  690   0.652   0.977   2.073
  216SOL     OW  691   0.122   0.643   2.425
  216SOL    HW1  692   0.077   0.555   2.442
  216SOL    HW2  693   0.121   0.697   2.509
  217SOL     OW  694   1.842   1.767   2.221
  217SOL    HW1  695   1.896   1.738   2.301
  217SOL    HW2  696   1.872   1.857   2.192
  218SOL     OW  697   0.027   1.596   1.979
  218SOL    HW1  698   0.008   1.500   2.000
  218SOL    HW2  699  -0.006   1.654   2.054
  219SOL     OW  700   1.689   0.922   2.474
  219SOL    HW1  701   1.784   0.893   2.482
  219SOL    HW2  702   1.681   0.987   2.399
  220SOL     OW  703   1.641   1.108   2.294
  220SOL    HW1  704   1.727   1.110   2.242
  220SOL    HW2  705   1.655   1.155   2.382
  221SOL     OW  706   0.613   1.365   2.588
  221SOL    HW1  707   0.564   1.278   2.597
  221SOL    HW2  708   0.590   1.408   2.501
  222SOL     OW  709   0.809   0.004   2.364
  222SOL    HW1  710   0.849   0.095   2.355
  222SOL    HW2  711   0.709   0.012   2.370
  223SOL     OW  712   1.525   0.999   2.052
  223SOL    HW1  713   1.462   0.923   2.065
  223SOL    HW2  714   1.573   1.017   2.138
  224SOL     OW  715   1.466   1.417   2.815
  224SOL    HW1  716   1.407   1.423   2.895
  224SOL    HW2  717   1.451   1.329   2.769
  225SOL     OW  718   1.667   1.714   2.434
  225SOL    HW1  719   1.626   1.691   2.346
  225SOL    HW2  720   1.649   1.640   2.499
  226SOL     OW  721   0.598   0.729   2.132
  226SOL    HW1  722   0.622   0.798   2.064
  226SOL    HW2  723   0.520   0.762   2.186
  227SOL     OW  724   1.281   0.345   2.806
  227SOL    HW1  725   1.195   0.295   2.793
  227SOL    HW2  726   1.343   0.291   2.862
  228SOL     OW  727   1.041   0.701   2.291
  228SOL    HW1  728   1.067   0.697   2.387
  228SOL    HW2  729   0.956   0.650   2.277
  229SOL     OW  730   0.076   0.811   2.651
  229SOL    HW1  731   0.175   0.799   2.660
  229SOL    HW2  732   0.052   0.906   2.672
  230SOL     OW  733   0.865   0.348   2.057
  230SOL    HW1  734   0.924   0.411   2.008
  230SOL    HW2  735   0.884   0.254   2.028
  231SOL     OW  736   1.362   1.144   2.407
  231SOL    HW1  737   1.445   1.115   2.359
  231SOL    HW2  738   1.313   1.211   2.351
  232SOL     OW  739   0.550   0.196   2.747
  232SOL    HW1  740   0.545   0.191   2.847
  232SOL    HW2  741   0.552   0.292   2.718
  233SOL     OW  742   1.008   1.456   2.339
  233SOL    HW1  743   0.962   1.528   2.287
  233SOL    HW2  744   1.004   1.476   2.437
  234SOL     OW  745   0.351   1.801   2.715
  234SOL    HW1  746   0.401   1.715   2.721
  234SOL    HW2  747   0.416   1.878   2.712
  235SOL     OW  748   1.795   1.066   2.735
  235SOL    HW1  749   1.733   1.051   2.659
  235SOL    HW2  750   1.743   1.077   2.820
  236SOL     OW  751   0.321   0.943   2.104
  236SOL    HW1  752   0.403   0.982   2.062
  236SOL    HW2  753   0.294   0.861   2.055
  237SOL     OW  754   1.458   0.735   2.590
  237SOL    HW1  755   1.453   0.670   2.665
  237SOL    HW2  756   1.538   0.794   2.603
  238SOL     OW  757   1.111   1.776   2.099
  238SOL    HW1  758   1.051   1.714   2.149
  238SOL    HW2  759   1.142   1.732   2.014
  239SOL     OW  760   0.464   1.743   2.185
  239SOL    HW1  761   0.497   1.782   2.271
  239SOL    HW2  762   0.540   1.736   2.120
  240SOL     OW  763   1.400   0.107   2.288
  240SOL    HW1  764   1.376   0.070   2.198
  240SOL    HW2  765   1.499   0.123   2.292
  241SOL     OW  766   0.249   1.785   3.103
  241SOL    HW1  767   0.306   1.720   3.153
  241SOL    HW2  768   0.233   1.752   3.010
  242SOL     OW  769   0.940   1.698   2.766
  242SOL    HW1  770   1.020   1.641   2.787
  242SOL    HW2  771   0.891   1.658   2.689
  243SOL     OW  772   0.382   0.700   2.342
  243SOL    HW1  773   0.427   0.610   2.339
  243SOL    HW2  774   0.288   0.689   2.375
  244SOL     OW  775   0.614   0.122   1.979
  244SOL    HW1  776   0.712   0.100   1.986
  244SOL    HW2  777   0.583   0.105   1.886
  245SOL     OW  778   0.803   1.402   2.786
  245SOL    HW1  779   0.893   1.416   2.744
  245SOL    HW2  780   0.732   1.404   2.715
  246SOL     OW  781   0.922   0.503   2.761
  246SOL    HW1  782   0.897   0.494   2.665
  246SOL    HW2  783   0.970   0.421   2.792
  247SOL     OW  784   0.539   0.064   2.374
  247SOL    HW1  785   0.458   0.065   2.432
  247SOL    HW2  786   0.542   0.147   2.319
  248SOL     OW  787   1.434   1.188   1.903
  248SOL    HW1  788   1.466   1.112   1.960
  248SOL    HW2  789   1.342   1.215   1.933
  249SOL     OW  790   0.297   0.035   2.033
  249SOL    HW1  791   0.346   0.119   2.012
  249SOL    HW2  792   0.359  -0.030   2.078
  250SOL     OW  793   0.935   0.236   2.342
  250SOL    HW1  794   0.887   0.277   2.264
  250SOL    HW2  795   1.034   0.234   2.323
  251SOL     OW  796   1.227   1.570   2.655
  251SOL    HW1  797   1.248   1.644   2.590
  251SOL    HW2  798   1.295   1.570   2.728
  252SOL     OW  799   0.459   1.152   2.603
  252SOL    HW1  800   0.388   1.125   2.668
  252SOL    HW2  801   0.433   1.124   2.510
  253SOL     OW  802   1.271   1.797   2.453
  253SOL    HW1  803   1.315   1.861   2.389
  253SOL    HW2  804   1.221   1.849   2.523
  254SOL     OW  805   1.032   0.549   1.878
  254SOL    HW1  806   0.991   0.631   1.839
  254SOL    HW2  807   1.096   0.575   1.951
  255SOL     OW  808   0.866   0.454   2.504
  255SOL    HW1  809   0.834   0.526   2.442
  255SOL    HW2  810   0.890   0.373   2.451
  256SOL     OW  811   1.017   0.039   2.615
  256SOL    HW1  812   0.945   0.044   2.546
  256SOL    HW2  813   0.993  -0.030   2.684
  257SOL     OW  814   1.429   1.173   2.729
  257SOL    HW1  815   1.374   1.089   2.722
  257SOL    HW2  816   1.455   1.202   2.637
  258SOL     OW  817   1.466   0.590   2.854
  258SOL    HW1  818   1.436   0.495   2.861
  258SOL    HW2  819   1.539   0.606   2.920
  259SOL     OW  820   1.857   0.833   2.239
  259SOL    HW1  821   1.899   0.769   2.303
  259SOL    HW2  822   1.819   0.782   2.161
  260SOL     OW  823   0.488   1.385   2.036
  260SOL    HW1  824   0.401   1.370   2.083
  260SOL    HW2  825   0.471   1.411   1.941
  261SOL     OW  826   1.664   1.280   2.519
  261SOL    HW1  827   1.763   1.288   2.533
  261SOL    HW2  828   1.619   1.364   2.550
  262SOL     OW  829   1.390   0.575   1.940
  262SOL    HW1  830   1.336   0.554   2.021
  262SOL    HW2  831   1.481   0.534   1.949
  263SOL     OW  832   0.527   0.256   2.190
  263SOL    HW1  833   0.554   0.197   2.115
  263SOL    HW2  834   0.527   0.351   2.159
  264SOL     OW  835   1.638   1.099   2.941
  264SOL    HW1  836   1.643   1.180   3.000
  264SOL    HW2  837   1.552   1.101   2.890
  265SOL     OW  838   0.705   1.050   2.230
  265SOL    HW1  839   0.691   1.057   2.329
  265SOL    HW2  840   0.789   0.999   2.212
  266SOL     OW  841   0.367   1.100   2.363
  266SOL    HW1  842   0.360   1.183   2.307
  266SOL    HW2  843   0.371   1.020   2.303
  267SOL     OW  844   0.566   0.537   2.727
  267SOL    HW1  845   0.578   0.603   2.653
  267SOL    HW2  846   0.612   0.571   2.810
  268SOL     OW  847   1.252   1.348   2.250
  268SOL    HW1  848   1.302   1.425   2.290
  268SOL    HW2  849   1.157   1.350   2.282
  269SOL     OW  850   1.582   0.639   2.334
  269SOL    HW1  851   1.551   0.700   2.407
  269SOL    HW2  852   1.632   0.691   2.265
  270SOL     OW  853   0.573   0.870   2.891
  270SOL    HW1  854   0.617   0.959   2.882
  270SOL    HW2  855   0.510   0.870   2.968
  271SOL     OW  856   1.209   0.525   2.137
  271SOL    HW1  857   1.222   0.441   2.191
  271SOL    HW2  858   1.180   0.599   2.197
  272SOL     OW  859   0.732   0.634   2.926
  272SOL    HW1  860   0.791   0.608   2.850
  272SOL    HW2  861   0.704   0.730   2.915
  273SOL     OW  862   0.307   0.063   2.480
  273SOL    HW1  863   0.296   0.157   2.513
  273SOL    HW2  864   0.302   0.000   2.557
  274SOL     OW  865   1.622   0.367   2.236
  274SOL    HW1  866   1.624   0.291   2.300
  274SOL    HW2  867   1.574   0.444   2.276
  275SOL     OW  868   1.023   0.766   2.828
  275SOL    HW1  869   1.038   0.787   2.924
  275SOL    HW2  870   0.993   0.671   2.819
  276SOL     OW  871   1.540   0.274   1.987
  276SOL    HW1  872   1.479   0.199   2.010
  276SOL    HW2  873   1.562   0.326   2.070
  277SOL     OW  874   1.303   0.838   1.904
  277SOL    HW1  875   1.337   0.745   1.919
  277SOL    HW2  876   1.321   0.865   1.809
  278SOL     OW  877   1.068   1.333   2.711
  278SOL    HW1  878   1.075   1.249   2.656
  278SOL    HW2  879   1.130   1.402   2.675
  279SOL     OW  880   0.319   0.810   2.811
  279SOL    HW1  881   0.412   0.846   2.816
  279SOL    HW2  882   0.313   0.725   2.863
  280SOL     OW  883   0.339   0.509   2.868
  280SOL    HW1  884   0.287   0.426   2.851
  280SOL    HW2  885   0.416   0.514   2.804
  281SOL     OW  886   0.008   1.326   2.062
  281SOL    HW1  887  -0.085   1.347   2.031
  281SOL    HW2  888   0.018   1.227   2.075
  282SOL     OW  889   0.088   1.801   2.789
  282SOL    HW1  890   0.046   1.715   2.762
  282SOL    HW2  891   0.182   1.804   2.755
  283SOL     OW  892   0.504   1.568   2.772
  283SOL    HW1  893   0.570   1.642   2.781
  283SOL    HW2  894   0.548   1.489   2.730
  284SOL     OW  895   1.002   0.796   3.100
  284SOL    HW1  896   1.043   0.764   3.186
  284SOL    HW2  897   0.906   0.769   3.097
  285SOL     OW  898   0.815   0.572   2.187
  285SOL    HW1  899   0.822   0.483   2.141
  285SOL    HW2  900   0.721   0.606   2.179
  286SOL     OW  901   0.671   0.464   3.131
  286SOL    HW1  902   0.637   0.375   3.101
  286SOL    HW2  903   0.697   0.518   3.051
  287SOL     OW  904   0.473   0.500   2.053
  287SOL    HW1  905   0.534   0.580   2.057
  287SOL    HW2  906   0.378   0.531   2.060
  288SOL     OW  907   1.302   0.855   2.171
  288SOL    HW1  908   1.216   0.824   2.213
  288SOL    HW2  909   1.298   0.841   2.072
  289SOL     OW  910   1.759   1.747   3.016
  289SOL    HW1  911   1.820   1.777   2.943
  289SOL    HW2  912   1.721   1.658   2.994
  290SOL     OW  913   0.083   1.258   2.884
  290SOL    HW1  914   0.078   1.257   2.984
  290SOL    HW2  915   0.000   1.217   2.846
  291SOL     OW  916   1.726   0.135   2.385
  291SOL    HW1  917   1.799   0.118   2.318
  291SOL    HW2  918   1.695   0.048   2.423
  292SOL     OW  919   1.280   0.927   2.534
  292SOL    HW1  920   1.340   0.846   2.536
  292SOL    HW2  921   1.320   0.996   2.474
  293SOL     OW  922   0.672   1.616   2.016
  293SOL    HW1  923   0.681   1.626   1.917
  293SOL    HW2  924   0.632   1.527   2.037
  294SOL     OW  925   1.841   0.175   2.825
  294SOL    HW1  926   1.880   0.090   2.789
  294SOL    HW2  927   1.743   0.177   2.806
  295SOL     OW  928   0.263   0.326   2.582
  295SOL    HW1  929   0.184   0.377   2.548
  295SOL    HW2  930   0.254   0.311   2.680
  296SOL     OW  931   1.194   1.612   1.893
  296SOL    HW1  932   1.200   1.519   1.930
  296SOL    HW2  933   1.135   1.612   1.813
  297SOL     OW  934   0.916   0.910   2.153
  297SOL    HW1  935   0.979   0.948   2.085
  297SOL    HW2  936   0.956   0.827   2.192
  298SOL     OW  937   1.039   1.098   2.558
  298SOL    HW1  938   0.969   1.051   2.612
  298SOL    HW2  939   1.098   1.030   2.515
  299SOL     OW  940   1.014   0.236   2.833
  299SOL    HW1  941   1.006   0.200   2.740
  299SOL    HW2  942   1.012   0.160   2.898
  300SOL     OW  943   0.590   1.487   2.353
  300SOL    HW1  944   0.632   1.429   2.283
  300SOL    HW2  945   0.546   1.566   2.309
  301SOL     OW  946   0.255   1.348   2.152
  301SOL    HW1  947   0.159   1.349   2.125
  301SOL    HW2  948   0.267   1.401   2.236
  302SOL     OW  949   0.075   0.345   1.895
  302SOL    HW1  950  -0.017   0.317   1.866
  302SOL    HW2  951   0.106   0.422   1.839
  303SOL     OW  952   0.072   0.166   2.180
  303SOL    HW1  953   0.055   0.249   2.126
  303SOL    HW2  954   0.162   0.129   2.158
  304SOL     OW  955   1.183   1.335   1.981
  304SOL    HW1  956   1.084   1.324   1.983
  304SOL    HW2  957   1.217   1.350   2.074
  305SOL     OW  958   1.493   1.767   2.821
  305SOL    HW1  959   1.526   1.831   2.752
  305SOL    HW2  960   1.559   1.761   2.896
  306SOL     OW  961   1.674   0.883   3.116
  306SOL    HW1  962   1.647   0.794   3.079
  306SOL    HW2  963   1.675   0.951   3.043
  307SOL     OW  964   1.225   0.325   2.311
  307SOL    HW1  965   1.290   0.251   2.300
  307SOL    HW2  966   1.245   0.375   2.395
  308SOL     OW  967   0.594   0.745   2.514
  308SOL    HW1  968   0.644   0.830   2.495
  308SOL    HW2  969   0.506   0.747   2.466
  309SOL     OW  970   0.859   1.374   1.878
  309SOL    HW1  971   0.813   1.389   1.966
  309SOL    HW2  972   0.903   1.459   1.848
  310SOL     OW  973   0.661   1.790   2.815
  310SOL    HW1  974   0.615   1.878   2.802
  310SOL    HW2  975   0.760   1.802   2.808
  311SOL     OW  976   0.859   0.956   2.723
  311SOL    HW1  977   0.913   0.887   2.771
  311SOL    HW2  978   0.827   1.025   2.789
  312SOL     OW  979   1.083   0.984   1.949
  312SOL    HW1  980   1.060   1.037   1.867
  312SOL    HW2  981   1.164   0.928   1.930
  313SOL     OW  982   1.861   1.569   2.713
  313SOL    HW1  983   1.790   1.557   2.643
  313SOL    HW2  984   1.862   1.490   2.773
  314SOL     OW  985   0.079   1.240   2.515
  314SOL    HW1  986   0.078   1.193   2.603
  314SOL    HW2  987   0.161   1.212   2.464
  315SOL     OW  988   1.824   0.192   3.089
  315SOL    HW1  989   1.820   0.102   3.133
  315SOL    HW2  990   1.827   0.181   2.990
  316SOL     OW  991   0.428   0.424   2.382
  316SOL    HW1  992   0.458   0.352   2.320
  316SOL    HW2  993   0.389   0.384   2.465
  317SOL     OW  994   0.812   1.586   2.549
  317SOL    HW1  995   0.844   1.596   2.455
  317SOL    HW2  996   0.733   1.524   2.551
  318SOL     OW  997   0.770   1.330   2.163
  318SOL    HW1  998   0.724   1.243   2.180
  318SOL    HW2  999   0.861   1.327   2.204
  319SOL     OW 1000   1.352   0.052   2.030
  319SOL    HW1 1001   1.387   0.011   1.946
  319SOL    HW2 1002   1.262   0.014   2.050
  320SOL     OW 1003   1.300   0.453   2.553
  320SOL    HW1 1004   1.241   0.533   2.557
  320SOL    HW2 1005   1.315   0.418   2.646
  321SOL     OW 1006   1.593   0.221   2.744
  321SOL    HW1 1007   1.509   0.220   2.798
  321SOL    HW2 1008   1.595   0.304   2.688
  322SOL     OW 1009   0.039   1.077   2.162
  322SOL    HW1 1010   0.138   1.066   2.153
  322SOL    HW2 1011  -0.001   0.991   2.194
  323SOL     OW 1012   0.875   1.646   2.199
  323SOL    HW1 1013   0.798   1.611   2.145
  323SOL    HW2 1014   0.843   1.717   2.261
  324SOL     OW 1015   0.230   2.490   0.113
  324SOL    HW1 1016   0.137   2.488   0.150
  324SOL    HW2 1017   0.231   2.451   0.021
  325SOL     OW 1018   0.225   2.137   0.996
  325SOL    HW1 1019   0.260   2.120   1.088
  325SOL    HW2 1020   0.137   2.092   0.984
  326SOL     OW 1021   0.019   2.230   0.647
  326SOL    HW1 1022  -0.063   2.273   0.686
  326SOL    HW2 1023  -0.009   2.157   0.584
  327SOL     OW 1024   1.135   2.565   0.717
  327SOL    HW1 1025   1.192   2.643   0.692
  327SOL    HW2 1026   1.075   2.591   0.793
  328SOL     OW 1027   1.755   2.469   0.231
  328SOL    HW1 1028   1.743   2.456   0.132
  328SOL    HW2 1029   1.725   2.388   0.280
  329SOL     OW 1030   0.768   3.006   1.023
  329SOL    HW1 1031   0.690   3.023   1.083
  329SOL    HW2 1032   0.802   3.093   0.987
  330SOL     OW 1033   0.850   2.660   1.823
  330SOL    HW1 1034   0.846   2.736   1.888
  330SOL    HW2 1035   0.872   2.696   1.732
  331SOL     OW 1036   0.685   2.874   0.665
  331SOL    HW1 1037   0.754   2.858   0.735
  331SOL    HW2 1038   0.612   2.931   0.703
  332SOL     OW 1039   0.438   2.254   1.499
  332SOL    HW1 1040   0.520   2.198   1.508
  332SOL    HW2 1041   0.357   2.196   1.503
  333SOL     OW 1042   1.603   2.309   0.737
  333SOL    HW1 1043   1.529   2.355   0.687
  333SOL    HW2 1044   1.654   2.377   0.790
  334SOL     OW 1045   0.230   3.296   0.538
  334SOL    HW1 1046   0.204   3.392   0.538
  334SOL    HW2 1047   0.159   3.242   0.583
  335SOL     OW 1048   0.240   2.953   0.886
  335SOL    HW1 1049   0.254   2.869   0.938
  335SOL    HW2 1050   0.185   3.017   0.941
  336SOL     OW 1051   0.606   2.826   0.123
  336SOL    HW1 1052   0.613   2.910   0.069
  336SOL    HW2 1053   0.652   2.839   0.211
  337SOL     OW 1054   1.594   1.976   1.480
  337SOL    HW1 1055   1.576   2.043   1.408
  337SOL    HW2 1056   1.591   2.022   1.569
  338SOL     OW 1057   0.122   2.505   0.563
  338SOL    HW1 1058   0.077   2.417   0.580
  338SOL    HW2 1059   0.121   2.559   0.647
  339SOL     OW 1060   1.689   2.784   0.612
  339SOL    HW1 1061   1.784   2.755   0.620
  339SOL    HW2 1062   1.681   2.849   0.537
  340SOL     OW 1063   0.113   2.599   1.597
  340SOL    HW1 1064   0.201   2.586   1.642
  340SOL    HW2 1065   0.100   2.696   1.575
  341SOL     OW 1066   0.613   3.227   0.726
  341SOL    HW1 1067   0.564   3.140   0.735
  341SOL    HW2 1068   0.590   3.270   0.639
  342SOL     OW 1069   1.293   3.090   1.423
  342SOL    HW1 1070   1.330   3.017   1.365
  342SOL    HW2 1071   1.345   3.095   1.508
  343SOL     OW 1072   0.809   1.866   0.502
  343SOL    HW1 1073   0.849   1.957   0.493
  343SOL    HW2 1074   0.709   1.874   0.508
  344SOL     OW 1075   0.197   2.838   1.264
  344SOL    HW1 1076   0.286   2.793   1.250
  344SOL    HW2 1077   0.124   2.773   1.245
  345SOL     OW 1078   1.525   2.861   0.190
  345SOL    HW1 1079   1.462   2.785   0.203
  345SOL    HW2 1080   1.573   2.879   0.276
  346SOL     OW 1081   0.317   2.113   1.801
  346SOL    HW1 1082   0.388   2.184   1.807
  346SOL    HW2 1083   0.229   2.152   1.829
  347SOL     OW 1084   0.598   2.591   0.270
  347SOL    HW1 1085   0.622   2.660   0.202
  347SOL    HW2 1086   0.520   2.624   0.324
  348SOL     OW 1087   1.281   2.207   0.944
  348SOL    HW1 1088   1.195   2.157   0.931
  348SOL    HW2 1089   1.343   2.153   1.000
  349SOL     OW 1090   0.807   2.467   1.465
  349SOL    HW1 1091   0.760   2.464   1.554
  349SOL    HW2 1092   0.756   2.412   1.399
  350SOL     OW 1093   1.394   2.331   1.674
  350SOL    HW1 1094   1.374   2.374   1.762
  350SOL    HW2 1095   1.472   2.269   1.683
  351SOL     OW 1096   0.973   2.752   1.572
  351SOL    HW1 1097   1.019   2.668   1.543
  351SOL    HW2 1098   0.917   2.786   1.497
  352SOL     OW 1099   0.991   2.272   1.242
  352SOL    HW1 1100   0.914   2.306   1.296
  352SOL    HW2 1101   0.957   2.221   1.163
  353SOL     OW 1102   1.041   2.563   0.429
  353SOL    HW1 1103   1.067   2.559   0.525
  353SOL    HW2 1104   0.956   2.512   0.415
  354SOL     OW 1105   0.076   2.673   0.789
  354SOL    HW1 1106   0.175   2.661   0.798
  354SOL    HW2 1107   0.052   2.768   0.810
  355SOL     OW 1108   0.865   2.210   0.195
  355SOL    HW1 1109   0.924   2.273   0.146
  355SOL    HW2 1110   0.884   2.116   0.166
  356SOL     OW 1111   1.719   2.447   1.831
  356SOL    HW1 1112   1.693   2.536   1.795
  356SOL    HW2 1113   1.717   2.379   1.758
  357SOL     OW 1114   0.550   2.058   0.885
  357SOL    HW1 1115   0.545   2.053   0.985
  357SOL    HW2 1116   0.552   2.154   0.856
  358SOL     OW 1117   1.795   2.928   0.873
  358SOL    HW1 1118   1.733   2.913   0.797
  358SOL    HW2 1119   1.743   2.939   0.958
  359SOL     OW 1120   1.458   2.597   0.728
  359SOL    HW1 1121   1.453   2.532   0.803
  359SOL    HW2 1122   1.538   2.656   0.741
  360SOL     OW 1123   0.202   2.147   1.498
  360SOL    HW1 1124   0.122   2.207   1.485
  360SOL    HW2 1125   0.192   2.098   1.584
  361SOL     OW 1126   1.400   1.969   0.426
  361SOL    HW1 1127   1.376   1.932   0.336
  361SOL    HW2 1128   1.499   1.985   0.430
  362SOL     OW 1129   0.382   2.562   0.480
  362SOL    HW1 1130   0.427   2.472   0.477
  362SOL    HW2 1131   0.288   2.551   0.513
  363SOL     OW 1132   1.547   2.084   1.729
  363SOL    HW1 1133   1.542   2.121   1.821
  363SOL    HW2 1134   1.475   2.015   1.717
  364SOL     OW 1135   0.614   1.984   0.117
  364SOL    HW1 1136   0.712   1.962   0.124
  364SOL    HW2 1137   0.583   1.967   0.024
  365SOL     OW 1138   0.781   2.126   1.749
  365SOL    HW1 1139   0.848   2.065   1.792
  365SOL    HW2 1140   0.708   2.145   1.814
  366SOL     OW 1141   1.351   2.452   1.433
  366SOL    HW1 1142   1.379   2.409   1.518
  366SOL    HW2 1143   1.376   2.548   1.434
  367SOL     OW 1144   0.922   2.365   0.899
  367SOL    HW1 1145   0.897   2.356   0.803
  367SOL    HW2 1146   0.970   2.283   0.930
  368SOL     OW 1147   0.539   1.926   0.512
  368SOL    HW1 1148   0.458   1.927   0.570
  368SOL    HW2 1149   0.542   2.009   0.457
  369SOL     OW 1150   0.935   2.098   0.480
  369SOL    HW1 1151   0.887   2.139   0.402
  369SOL    HW2 1152   1.034   2.096   0.461
  370SOL     OW 1153   1.076   2.545   1.464
  370SOL    HW1 1154   0.996   2.484   1.467
  370SOL    HW2 1155   1.157   2.492   1.440
  371SOL     OW 1156   1.032   2.411   0.016
  371SOL    HW1 1157   0.991   2.493  -0.023
  371SOL    HW2 1158   1.096   2.437   0.089
  372SOL     OW 1159   0.078   2.418   1.386
  372SOL    HW1 1160   0.170   2.417   1.345
  372SOL    HW2 1161   0.072   2.492   1.453
  373SOL     OW 1162   0.561   2.084   1.147
  373SOL    HW1 1163   0.599   2.000   1.184
  373SOL    HW2 1164   0.473   2.103   1.191
  374SOL     OW 1165   0.866   2.316   0.642
  374SOL    HW1 1166   0.834   2.388   0.580
  374SOL    HW2 1167   0.890   2.235   0.589
  375SOL     OW 1168   1.017   1.901   0.753
  375SOL    HW1 1169   0.945   1.906   0.684
  375SOL    HW2 1170   0.993   1.832   0.822
  376SOL     OW 1171   1.429   3.035   0.867
  376SOL    HW1 1172   1.374   2.951   0.860
  376SOL    HW2 1173   1.455   3.064   0.775
  377SOL     OW 1174   1.466   2.452   0.992
  377SOL    HW1 1175   1.436   2.357   0.999
  377SOL    HW2 1176   1.539   2.468   1.058
  378SOL     OW 1177   1.857   2.695   0.377
  378SOL    HW1 1178   1.899   2.631   0.441
  378SOL    HW2 1179   1.819   2.644   0.299
  379SOL     OW 1180   1.390   2.437   0.078
  379SOL    HW1 1181   1.336   2.416   0.159
  379SOL    HW2 1182   1.481   2.396   0.087
  380SOL     OW 1183   0.527   2.118   0.328
  380SOL    HW1 1184   0.554   2.059   0.253
  380SOL    HW2 1185   0.527   2.213   0.297
  381SOL     OW 1186   1.754   3.085   1.588
  381SOL    HW1 1187   1.845   3.046   1.575
  381SOL    HW2 1188   1.762   3.181   1.612
  382SOL     OW 1189   1.638   2.961   1.079
  382SOL    HW1 1190   1.643   3.042   1.138
  382SOL    HW2 1191   1.552   2.963   1.028
  383SOL     OW 1192   0.915   1.951   1.402
  383SOL    HW1 1193   0.940   1.931   1.307
  383SOL    HW2 1194   0.987   2.007   1.444
  384SOL     OW 1195   0.410   2.675   1.251
  384SOL    HW1 1196   0.496   2.687   1.301
  384SOL    HW2 1197   0.368   2.588   1.278
  385SOL     OW 1198   1.274   2.248   1.262
  385SOL    HW1 1199   1.295   2.322   1.326
  385SOL    HW2 1200   1.185   2.265   1.219
  386SOL     OW 1201   0.566   2.399   0.865
  386SOL    HW1 1202   0.578   2.465   0.791
  386SOL    HW2 1203   0.612   2.433   0.948
  387SOL     OW 1204   1.582   2.501   0.472
  387SOL    HW1 1205   1.551   2.562   0.545
  387SOL    HW2 1206   1.632   2.553   0.403
  388SOL     OW 1207   0.402   2.613   1.598
  388SOL    HW1 1208   0.470   2.668   1.551
  388SOL    HW2 1209   0.442   2.525   1.625
  389SOL     OW 1210   1.587   2.641   1.670
  389SOL    HW1 1211   1.495   2.679   1.665
  389SOL    HW2 1212   1.647   2.688   1.605
  390SOL     OW 1213   1.013   1.967   1.770
  390SOL    HW1 1214   1.019   2.052   1.718
  390SOL    HW2 1215   1.045   1.891   1.713
  391SOL     OW 1216   0.504   1.912   1.740
  391SOL    HW1 1217   0.462   1.855   1.670
  391SOL    HW2 1218   0.438   1.981   1.772
  392SOL     OW 1219   0.573   2.732   1.029
  392SOL    HW1 1220   0.617   2.821   1.020
  392SOL    HW2 1221   0.510   2.732   1.106
  393SOL     OW 1222   1.360   2.724   1.045
  393SOL    HW1 1223   1.285   2.724   0.979
  393SOL    HW2 1224   1.397   2.632   1.054
  394SOL     OW 1225   1.209   2.387   0.275
  394SOL    HW1 1226   1.222   2.303   0.329
  394SOL    HW2 1227   1.180   2.461   0.335
  395SOL     OW 1228   0.307   2.075   1.231
  395SOL    HW1 1229   0.284   2.112   1.321
  395SOL    HW2 1230   0.277   1.980   1.225
  396SOL     OW 1231   0.037   3.172   1.282
  396SOL    HW1 1232   0.090   3.123   1.350
  396SOL    HW2 1233   0.059   3.270   1.287
  397SOL     OW 1234   0.732   2.496   1.064
  397SOL    HW1 1235   0.791   2.470   0.988
  397SOL    HW2 1236   0.704   2.592   1.053
  398SOL     OW 1237   1.728   2.797   1.854
  398SOL    HW1 1238   1.682   2.790   1.765
  398SOL    HW2 1239   1.666   2.841   1.920
  399SOL     OW 1240   0.307   1.925   0.618
  399SOL    HW1 1241   0.296   2.019   0.651
  399SOL    HW2 1242   0.302   1.862   0.695
  400SOL     OW 1243   1.622   2.229   0.374
  400SOL    HW1 1244   1.624   2.153   0.438
  400SOL    HW2 1245   1.574   2.306   0.414
  401SOL     OW 1246   1.023   2.628   0.966
  401SOL    HW1 1247   1.038   2.649   1.062
  401SOL    HW2 1248   0.993   2.533   0.957
  402SOL     OW 1249   0.350   2.760   1.804
  402SOL    HW1 1250   0.426   2.804   1.852
  402SOL    HW2 1251   0.385   2.713   1.722
  403SOL     OW 1252   1.540   2.136   0.125
  403SOL    HW1 1253   1.479   2.061   0.148
  403SOL    HW2 1254   1.562   2.188   0.208
  404SOL     OW 1255   1.303   2.700   0.042
  404SOL    HW1 1256   1.337   2.607   0.057
  404SOL    HW2 1257   1.321   2.727  -0.053
  405SOL     OW 1258   0.319   2.672   0.949
  405SOL    HW1 1259   0.412   2.708   0.954
  405SOL    HW2 1260   0.313   2.587   1.001
  406SOL     OW 1261   0.339   2.371   1.006
  406SOL    HW1 1262   0.287   2.288   0.989
  406SOL    HW2 1263   0.416   2.376   0.942
  407SOL     OW 1264   1.138   2.242   1.678
  407SOL    HW1 1265   1.093   2.305   1.742
  407SOL    HW2 1266   1.231   2.273   1.661
  408SOL     OW 1267   1.160   2.069   1.477
  408SOL    HW1 1268   1.160   2.133   1.554
  408SOL    HW2 1269   1.188   2.117   1.394
  409SOL     OW 1270   1.002   2.658   1.238
  409SOL    HW1 1271   1.043   2.626   1.324
  409SOL    HW2 1272   0.906   2.631   1.235
  410SOL     OW 1273   0.040   2.406   1.114
  410SOL    HW1 1274   0.125   2.373   1.073
  410SOL    HW2 1275   0.053   2.421   1.212
  411SOL     OW 1276   0.189   2.382   1.722
  411SOL    HW1 1277   0.248   2.342   1.652
  411SOL    HW2 1278   0.131   2.453   1.681
  412SOL     OW 1279   1.369   2.812   1.660
  412SOL    HW1 1280   1.408   2.901   1.680
  412SOL    HW2 1281   1.379   2.792   1.563
  413SOL     OW 1282   0.815   2.434   0.325
  413SOL    HW1 1283   0.822   2.345   0.279
  413SOL    HW2 1284   0.721   2.468   0.317
  414SOL     OW 1285   1.657   2.466   1.206
  414SOL    HW1 1286   1.619   2.397   1.268
  414SOL    HW2 1287   1.739   2.430   1.162
  415SOL     OW 1288   0.671   2.326   1.269
  415SOL    HW1 1289   0.637   2.237   1.239
  415SOL    HW2 1290   0.697   2.380   1.189
  416SOL     OW 1291   0.473   2.362   0.191
  416SOL    HW1 1292   0.534   2.442   0.195
  416SOL    HW2 1293   0.378   2.393   0.198
  417SOL     OW 1294   0.159   2.999   1.466
  417SOL    HW1 1295   0.181   2.938   1.542
  417SOL    HW2 1296   0.169   2.950   1.380
  418SOL     OW 1297   1.347   2.921   1.234
  418SOL    HW1 1298   1.371   2.858   1.160
  418SOL    HW2 1299   1.257   2.961   1.216
  419SOL     OW 1300   1.302   2.717   0.309
  419SOL    HW1 1301   1.216   2.686   0.351
  419SOL    HW2 1302   1.298   2.703   0.210
  420SOL     OW 1303   0.903   1.948   0.133
  420SOL    HW1 1304   0.954   1.949   0.047
  420SOL    HW2 1305   0.959   1.906   0.204
  421SOL     OW 1306   1.726   1.997   0.523
  421SOL    HW1 1307   1.799   1.980   0.456
  421SOL    HW2 1308   1.695   1.910   0.561
  422SOL     OW 1309   1.280   2.789   0.672
  422SOL    HW1 1310   1.340   2.708   0.674
  422SOL    HW2 1311   1.320   2.858   0.612
  423SOL     OW 1312   1.841   2.037   0.963
  423SOL    HW1 1313   1.880   1.952   0.927
  423SOL    HW2 1314   1.743   2.039   0.944
  424SOL     OW 1315   0.263   2.188   0.720
  424SOL    HW1 1316   0.184   2.239   0.686
  424SOL    HW2 1317   0.254   2.173   0.818
  425SOL     OW 1318   0.822   2.864   1.372
  425SOL    HW1 1319   0.862   2.863   1.280
  425SOL    HW2 1320   0.832   2.956   1.412
  426SOL     OW 1321   0.916   2.772   0.291
  426SOL    HW1 1322   0.979   2.810   0.223
  426SOL    HW2 1323   0.956   2.689   0.330
  427SOL     OW 1324   1.014   2.098   0.971
  427SOL    HW1 1325   1.006   2.062   0.878
  427SOL    HW2 1326   1.012   2.022   1.036
  428SOL     OW 1327   1.709   2.247   1.381
  428SOL    HW1 1328   1.782   2.316   1.385
  428SOL    HW2 1329   1.737   2.172   1.322
  429SOL     OW 1330   0.105   2.875   1.726
  429SOL    HW1 1331   0.028   2.842   1.780
  429SOL    HW2 1332   0.190   2.845   1.768
  430SOL     OW 1333   0.672   2.065   1.489
  430SOL    HW1 1334   0.762   2.049   1.449
  430SOL    HW2 1335   0.680   2.070   1.588
  431SOL     OW 1336   0.075   2.207   0.033
  431SOL    HW1 1337  -0.017   2.179   0.004
  431SOL    HW2 1338   0.106   2.284  -0.023
  432SOL     OW 1339   1.440   2.718   1.398
  432SOL    HW1 1340   1.383   2.770   1.335
  432SOL    HW2 1341   1.536   2.730   1.374
  433SOL     OW 1342   0.072   2.028   0.318
  433SOL    HW1 1343   0.055   2.111   0.264
  433SOL    HW2 1344   0.162   1.991   0.296
  434SOL     OW 1345   1.183   3.197   0.119
  434SOL    HW1 1346   1.084   3.186   0.121
  434SOL    HW2 1347   1.217   3.212   0.212
  435SOL     OW 1348   0.613   2.704   1.431
  435SOL    HW1 1349   0.669   2.785   1.414
  435SOL    HW2 1350   0.672   2.624   1.434
  436SOL     OW 1351   0.716   2.427   1.708
  436SOL    HW1 1352   0.735   2.492   1.782
  436SOL    HW2 1353   0.776   2.347   1.717
  437SOL     OW 1354   1.674   2.745   1.254
  437SOL    HW1 1355   1.647   2.656   1.217
  437SOL    HW2 1356   1.675   2.813   1.181
  438SOL     OW 1357   1.225   2.187   0.449
  438SOL    HW1 1358   1.290   2.113   0.438
  438SOL    HW2 1359   1.245   2.237   0.533
  439SOL     OW 1360   0.594   2.607   0.652
  439SOL    HW1 1361   0.644   2.692   0.633
  439SOL    HW2 1362   0.506   2.609   0.604
  440SOL     OW 1363   1.777   2.204   1.642
  440SOL    HW1 1364   1.760   2.235   1.548
  440SOL    HW2 1365   1.693   2.167   1.680
  441SOL     OW 1366   1.730   2.796   1.517
  441SOL    HW1 1367   1.768   2.887   1.532
  441SOL    HW2 1368   1.722   2.779   1.418
  442SOL     OW 1369   0.859   2.818   0.861
  442SOL    HW1 1370   0.913   2.749   0.909
  442SOL    HW2 1371   0.827   2.887   0.927
  443SOL     OW 1372   1.083   2.846   0.087
  443SOL    HW1 1373   1.060   2.899   0.005
  443SOL    HW2 1374   1.164   2.790   0.068
  444SOL     OW 1375   1.824   2.054   1.227
  444SOL    HW1 1376   1.820   1.964   1.271
  444SOL    HW2 1377   1.827   2.043   1.128
  445SOL     OW 1378   0.428   2.286   0.520
  445SOL    HW1 1379   0.458   2.214   0.458
  445SOL    HW2 1380   0.389   2.246   0.603
  446SOL     OW 1381   0.317   2.409   1.280
  446SOL    HW1 1382   0.355   2.350   1.352
  446SOL    HW2 1383   0.357   2.383   1.192
  447SOL     OW 1384   1.424   2.076   1.112
  447SOL    HW1 1385   1.476   2.011   1.167
  447SOL    HW2 1386   1.375   2.139   1.173
  448SOL     OW 1387   1.001   1.896   1.154
  448SOL    HW1 1388   0.938   1.824   1.123
  448SOL    HW2 1389   1.094   1.860   1.154
  449SOL     OW 1390   1.352   1.914   0.168
  449SOL    HW1 1391   1.387   1.873   0.084
  449SOL    HW2 1392   1.262   1.876   0.188
  450SOL     OW 1393   1.300   2.315   0.691
  450SOL    HW1 1394   1.241   2.395   0.695
  450SOL    HW2 1395   1.315   2.280   0.784
  451SOL     OW 1396   1.593   2.083   0.882
  451SOL    HW1 1397   1.509   2.082   0.936
  451SOL    HW2 1398   1.595   2.166   0.826
  452SOL     OW 1399   0.039   2.939   0.300
  452SOL    HW1 1400   0.138   2.928   0.291
  452SOL    HW2 1401  -0.001   2.853   0.332
  453SOL     OW 1402   0.230   2.490   1.975
  453SOL    HW1 1403   0.137   2.488   2.012
  453SOL    HW2 1404   0.231   2.451   1.883
  454SOL     OW 1405   0.225   2.137   2.858
  454SOL    HW1 1406   0.260   2.120   2.950
  454SOL    HW2 1407   0.137   2.092   2.846
  455SOL     OW 1408   0.019   2.230   2.509
  455SOL    HW1 1409  -0.063   2.273   2.548
  455SOL    HW2 1410  -0.009   2.157   2.446
  456SOL     OW 1411   1.135   2.565   2.579
  456SOL    HW1 1412   1.192   2.643   2.554
  456SOL    HW2 1413   1.075   2.591   2.655
  457SOL     OW 1414   1.755   2.469   2.093
  457SOL    HW1 1415   1.743   2.456   1.994
  457SOL    HW2 1416   1.725   2.388   2.142
  458SOL     OW 1417   0.768   3.006   2.885
  458SOL    HW1 1418   0.690   3.023   2.945
  458SOL    HW2 1419   0.802   3.093   2.849
  459SOL     OW 1420   0.685   2.874   2.527
  459SOL    HW1 1421   0.754   2.858   2.597
  459SOL    HW2 1422   0.612   2.931   2.565
  460SOL     OW 1423   1.603   2.309   2.599
  460SOL    HW1 1424   1.529   2.355   2.549
  460SOL    HW2 1425   1.654   2.377   2.652
  461SOL     OW 1426   0.230   3.296   2.400
  461SOL    HW1 1427   0.204   3.392   2.400
  461SOL    HW2 1428   0.159   3.242   2.445
  462SOL     OW 1429   0.240   2.953   2.748
  462SOL    HW1 1430   0.254   2.869   2.800
  462SOL    HW2 1431   0.185   3.017   2.803
  463SOL     OW 1432   0.606   2.826   1.985
  463SOL    HW1 1433   0.613   2.910   1.931
  463SOL    HW2 1434   0.652   2.839   2.073
  464SOL     OW 1435   0.122   2.505   2.425
  464SOL    HW1 1436   0.077   2.417   2.442
  464SOL    HW2 1437   0.121   2.559   2.509
  465SOL     OW 1438   1.689   2.784   2.474
  465SOL    HW1 1439   1.784   2.755   2.482
  465SOL    HW2 1440   1.681   2.849   2.399
  466SOL     OW 1441   0.613   3.227   2.588
  466SOL    HW1 1442   0.564   3.140   2.597
  466SOL    HW2 1443   0.590   3.270   2.501
  467SOL     OW 1444   0.809   1.866   2.364
  467SOL    HW1 1445   0.849   1.957   2.355
  467SOL    HW2 1446   0.709   1.874   2.370
  468SOL     OW 1447   0.197   2.838   3.126
  468SOL    HW1 1448   0.286   2.793   3.112
  468SOL    HW2 1449   0.124   2.773   3.107
  469SOL     OW 1450   1.525   2.861   2.052
  469SOL    HW1 1451   1.462   2.785   2.065
  469SOL    HW2 1452   1.573   2.879   2.138
  470SOL     OW 1453   0.598   2.591   2.132
  470SOL    HW1 1454   0.622   2.660   2.064
  470SOL    HW2 1455   0.520   2.624   2.186
  471SOL     OW 1456   1.281   2.207   2.806
  471SOL    HW1 1457   1.195   2.157   2.793
  471SOL    HW2 1458   1.343   2.153   2.862
  472SOL     OW 1459   1.041   2.563   2.291
  472SOL    HW1 1460   1.067   2.559   2.387
  472SOL    HW2 1461   0.956   2.512   2.277
  473SOL     OW 1462   0.076   2.673   2.651
  473SOL    HW1 1463   0.175   2.661   2.660
  473SOL    HW2 1464   0.052   2.768   2.672
  474SOL     OW 1465   0.865   2.210   2.057
  474SOL    HW1 1466   0.924   2.273   2.008
  474SOL    HW2 1467   0.884   2.116   2.028
  475SOL     OW 1468   0.550   2.058   2.747
  475SOL    HW1 1469   0.545   2.053   2.847
  475SOL    HW2 1470   0.552   2.154   2.718
  476SOL     OW 1471   1.795   2.928   2.735
  476SOL    HW1 1472   1.733   2.913   2.659
  476SOL    HW2 1473   1.743   2.939   2.820
  477SOL     OW 1474   1.458   2.597   2.590
  477SOL    HW1 1475   1.453   2.532   2.665
  477SOL    HW2 1476   1.538   2.656   2.603
  478SOL     OW 1477   1.400   1.969   2.288
  478SOL    HW1 1478   1.376   1.932   2.198
  478SOL    HW2 1479   1.499   1.985   2.292
  479SOL     OW 1480   0.382   2.562   2.342
  479SOL    HW1 1481   0.427   2.472   2.339
  479SOL    HW2 1482   0.288   2.551   2.375
  480SOL     OW 1483   0.614   1.984   1.979
  480SOL    HW1 1484   0.712   1.962   1.986
  480SOL    HW2 1485   0.583   1.967   1.886
  481SOL     OW 1486   0.922   2.365   2.761
  481SOL    HW1 1487   0.897   2.356   2.665
  481SOL    HW2 1488   0.970   2.283   2.792
  482SOL     OW 1489   0.539   1.926   2.374
  482SOL    HW1 1490   0.458   1.927   2.432
  482SOL    HW2 1491   0.542   2.009   2.319
  483SOL     OW 1492   0.297   1.897   2.033
  483SOL    HW1 1493   0.346   1.981   2.012
  483SOL    HW2 1494   0.359   1.832   2.078
  484SOL     OW 1495   0.935   2.098   2.342
  484SOL    HW1 1496   0.887   2.139   2.264
  484SOL    HW2 1497   1.034   2.096   2.323
  485SOL     OW 1498   1.032   2.411   1.878
  485SOL    HW1 1499   0.991   2.493   1.839
  485SOL    HW2 1500   1.096   2.437   1.951
  486SOL     OW 1501   0.866   2.316   2.504
  486SOL    HW1 1502   0.834   2.388   2.442
  486SOL    HW2 1503   0.890   2.235   2.451
  487SOL     OW 1504   1.017   1.901   2.615
  487SOL    HW1 1505   0.945   1.906   2.546
  487SOL    HW2 1506   0.993   1.832   2.684
  488SOL     OW 1507   1.429   3.035   2.729
  488SOL    HW1 1508   1.374   2.951   2.722
  488SOL    HW2 1509   1.455   3.064   2.637
  489SOL     OW 1510   1.466   2.452   2.854
  489SOL    HW1 1511   1.436   2.357   2.861
  489SOL    HW2 1512   1.539   2.468   2.920
  490SOL     OW 1513   1.857   2.695   2.239
  490SOL    HW1 1514   1.899   2.631   2.303
  490SOL    HW2 1515   1.819   2.644   2.161
  491SOL     OW 1516   1.390   2.437   1.940
  491SOL    HW1 1517   1.336   2.416   2.021
  491SOL    HW2 1518   1.481   2.396   1.949
  492SOL     OW 1519   0.527   2.118   2.190
  492SOL    HW1 1520   0.554   2.059   2.115
  492SOL    HW2 1521   0.527   2.213   2.159
  493SOL     OW 1522   1.638   2.961   2.941
  493SOL    HW1 1523   1.643   3.042   3.000
  493SOL    HW2 1524   1.552   2.963   2.890
  494SOL     OW 1525   0.566   2.399   2.727
  494SOL    HW1 1526   0.578   2.465   2.653
  494SOL    HW2 1527   0.612   2.433   2.810
  495SOL     OW 1528   1.582   2.501   2.334
  495SOL    HW1 1529   1.551   2.562   2.407
  495SOL    HW2 1530   1.632   2.553   2.265
  496SOL     OW 1531   0.573   2.732   2.891
  496SOL    HW1 1532   0.617   2.821   2.882
  496SOL    HW2 1533   0.510   2.732   2.968
  497SOL     OW 1534   1.209   2.387   2.137
  497SOL    HW1 1535   1.222   2.303   2.191
  497SOL    HW2 1536   1.180   2.461   2.197
  498SOL     OW 1537   0.307   2.075   3.093
  498SOL    HW1 1538   0.284   2.112   3.183
  498SOL    HW2 1539   0.277   1.980   3.087
  499SOL     OW 1540   0.732   2.496   2.926
  499SOL    HW1 1541   0.791   2.470   2.850
  499SOL    HW2 1542   0.704   2.592   2.915
  500SOL     OW 1543   0.307   1.925   2.480
  500SOL    HW1 1544   0.296   2.019   2.513
  500SOL    HW2 1545   0.302   1.862   2.557
  501SOL     OW 1546   1.622   2.229   2.236
  501SOL    HW1 1547   1.624   2.153   2.300
  501SOL    HW2 1548   1.574   2.306   2.276
  502SOL     OW 1549   1.023   2.628   2.828
  502SOL    HW1 1550   1.038   2.649   2.924
  502SOL    HW2 1551   0.993   2.533   2.819
  503SOL     OW 1552   1.540   2.136   1.987
  503SOL    HW1 1553   1.479   2.061   2.010
  503SOL    HW2 1554   1.562   2.188   2.070
  504SOL     OW 1555   1.303   2.700   1.904
  504SOL    HW1 1556   1.337   2.607   1.919
  504SOL    HW2 1557   1.321   2.727   1.809
  505SOL     OW 1558   0.319   2.672   2.811
  505SOL    HW1 1559   0.412   2.708   2.816
  505SOL    HW2 1560   0.313   2.587   2.863
  506SOL     OW 1561   0.339   2.371   2.868
  506SOL    HW1 1562   0.287   2.288   2.851
  506SOL    HW2 1563   0.416   2.376   2.804
  507SOL     OW 1564   1.002   2.658   3.100
  507SOL    HW1 1565   1.043   2.626   3.186
  507SOL    HW2 1566   0.906   2.631   3.097
  508SOL     OW 1567   0.815   2.434   2.187
  508SOL    HW1 1568   0.822   2.345   2.141
  508SOL    HW2 1569   0.721   2.468   2.179
  509SOL     OW 1570   0.671   2.326   3.131
  509SOL    HW1 1571   0.637   2.237   3.101
  509SOL    HW2 1572   0.697   2.380   3.051
  510SOL     OW 1573   0.473   2.362   2.053
  510SOL    HW1 1574   0.534   2.442   2.057
  510SOL    HW2 1575   0.378   2.393   2.060
  511SOL     OW 1576   1.302   2.717   2.171
  511SOL    HW1 1577   1.216   2.686   2.213
  511SOL    HW2 1578   1.298   2.703   2.072
  512SOL     OW 1579   1.726   1.997   2.385
  512SOL    HW1 1580   1.799   1.980   2.318
  512SOL    HW2 1581   1.695   1.910   2.423
  513SOL     OW 1582   1.280   2.789   2.534
  513SOL    HW1 1583   1.340   2.708   2.536
  513SOL    HW2 1584   1.320   2.858   2.474
  514SOL     OW 1585   1.841   2.037   2.825
  514SOL    HW1 1586   1.880   1.952   2.789
  514SOL    HW2 1587   1.743   2.039   2.806
  515SOL     OW 1588   0.263   2.188   2.582
  515SOL    HW1 1589   0.184   2.239   2.548
  515SOL    HW2 1590   0.254   2.173   2.680
  516SOL     OW 1591   0.916   2.772   2.153
  516SOL    HW1 1592   0.979   2.810   2.085
  516SOL    HW2 1593   0.956   2.689   2.192
  517SOL     OW 1594   1.014   2.098   2.833
  517SOL    HW1 1595   1.006   2.062   2.740
  517SOL    HW2 1596   1.012   2.022   2.898
  518SOL     OW 1597   0.075   2.207   1.895
  518SOL    HW1 1598  -0.017   2.179   1.866
  518SOL    HW2 1599   0.106   2.284   1.839
  519SOL     OW 1600   0.072   2.028   2.180
  519SOL    HW1 1601   0.055   2.111   2.126
  519SOL    HW2 1602   0.162   1.991   2.158
  520SOL     OW 1603   1.183   3.197   1.981
  520SOL    HW1 1604   1.084   3.186   1.983
  520SOL    HW2 1605   1.217   3.212   2.074
  521SOL     OW 1606   1.674   2.745   3.116
  521SOL    HW1 1607   1.647   2.656   3.079
  521SOL    HW2 1608   1.675   2.813   3.043
  522SOL     OW 1609   1.225   2.187   2.311
  522SOL    HW1 1610   1.290   2.113   2.300
  522SOL    HW2 1611   1.245   2.237   2.395
  523SOL     OW 1612   0.594   2.607   2.514
  523SOL    HW1 1613   0.644   2.692   2.495
  523SOL    HW2 1614   0.506   2.609   2.466
  524SOL     OW 1615   0.859   2.818   2.723
  524SOL    HW1 1616   0.913   2.749   2.771
  524SOL    HW2 1617   0.827   2.887   2.789
  525SOL     OW 1618   1.083   2.846   1.949
  525SOL    HW1 1619   1.060   2.899   1.867
  525SOL    HW2 1620   1.164   2.790   1.930
  526SOL     OW 1621   1.824   2.054   3.089
  526SOL    HW1 1622   1.820   1.964   3.133
  526SOL    HW2 1623   1.827   2.043   2.990
  527SOL     OW 1624   0.428   2.286   2.382
  527SOL    HW1 1625   0.458   2.214   2.320
  527SOL    HW2 1626   0.389   2.246   2.465
  528SOL     OW 1627   1.352   1.914   2.030
  528SOL    HW1 1628   1.387   1.873   1.946
  528SOL    HW2 1629   1.262   1.876   2.050
  529SOL     OW 1630   1.300   2.315   2.553
  529SOL    HW1 1631   1.241   2.395   2.557
  529SOL    HW2 1632   1.315   2.280   2.646
  530SOL     OW 1633   1.593   2.083   2.744
  530SOL    HW1 1634   1.509   2.082   2.798
  530SOL    HW2 1635   1.595   2.166   2.688
  531SOL     OW 1636   0.039   2.939   2.162
  531SOL    HW1 1637   0.138   2.928   2.153
  531SOL    HW2 1638  -0.001   2.853   2.194
  532SOL     OW 1639   2.092   0.628   0.113
  532SOL    HW1 1640   1.999   0.626   0.150
  532SOL    HW2 1641   2.093   0.589   0.021
  533SOL     OW 1642   2.087   0.275   0.996
  533SOL    HW1 1643   2.122   0.258   1.088
  533SOL    HW2 1644   1.999   0.230   0.984
  534SOL     OW 1645   1.881   0.368   0.647
  534SOL    HW1 1646   1.799   0.411   0.686
  534SOL    HW2 1647   1.853   0.295   0.584
  535SOL     OW 1648   2.431   1.275   1.165
  535SOL    HW1 1649   2.338   1.268   1.128
  535SOL    HW2 1650   2.442   1.364   1.209
  536SOL     OW 1651   2.630   1.144   1.023
  536SOL    HW1 1652   2.552   1.161   1.083
  536SOL    HW2 1653   2.664   1.231   0.987
  537SOL     OW 1654   2.712   0.798   1.823
  537SOL    HW1 1655   2.708   0.874   1.888
  537SOL    HW2 1656   2.734   0.834   1.732
  538SOL     OW 1657   2.547   1.012   0.665
  538SOL    HW1 1658   2.616   0.996   0.735
  538SOL    HW2 1659   2.474   1.069   0.703
  539SOL     OW 1660   2.548   1.161   1.803
  539SOL    HW1 1661   2.608   1.240   1.817
  539SOL    HW2 1662   2.462   1.192   1.762
  540SOL     OW 1663   2.197   1.435   1.061
  540SOL    HW1 1664   2.119   1.404   1.008
  540SOL    HW2 1665   2.255   1.493   1.004
  541SOL     OW 1666   2.300   0.392   1.499
  541SOL    HW1 1667   2.382   0.336   1.508
  541SOL    HW2 1668   2.219   0.334   1.503
  542SOL     OW 1669   2.093   1.713   0.483
  542SOL    HW1 1670   2.127   1.790   0.537
  542SOL    HW2 1671   2.137   1.713   0.393
  543SOL     OW 1672   2.989   1.341   1.690
  543SOL    HW1 1673   3.036   1.341   1.778
  543SOL    HW2 1674   2.941   1.254   1.679
  544SOL     OW 1675   2.092   1.434   0.538
  544SOL    HW1 1676   2.066   1.530   0.538
  544SOL    HW2 1677   2.021   1.380   0.583
  545SOL     OW 1678   2.102   1.091   0.886
  545SOL    HW1 1679   2.116   1.007   0.938
  545SOL    HW2 1680   2.047   1.155   0.941
  546SOL     OW 1681   2.482   1.786   1.439
  546SOL    HW1 1682   2.390   1.769   1.474
  546SOL    HW2 1683   2.510   1.878   1.465
  547SOL     OW 1684   2.468   0.964   0.123
  547SOL    HW1 1685   2.475   1.048   0.069
  547SOL    HW2 1686   2.514   0.977   0.211
  548SOL     OW 1687   1.984   0.643   0.563
  548SOL    HW1 1688   1.939   0.555   0.580
  548SOL    HW2 1689   1.983   0.697   0.647
  549SOL     OW 1690   1.889   1.596   0.117
  549SOL    HW1 1691   1.870   1.500   0.138
  549SOL    HW2 1692   1.856   1.654   0.192
  550SOL     OW 1693   1.975   0.737   1.597
  550SOL    HW1 1694   2.063   0.724   1.642
  550SOL    HW2 1695   1.962   0.834   1.575
  551SOL     OW 1696   2.475   1.365   0.726
  551SOL    HW1 1697   2.426   1.278   0.735
  551SOL    HW2 1698   2.452   1.408   0.639
  552SOL     OW 1699   2.671   0.004   0.502
  552SOL    HW1 1700   2.711   0.095   0.493
  552SOL    HW2 1701   2.571   0.012   0.508
  553SOL     OW 1702   2.059   0.976   1.264
  553SOL    HW1 1703   2.148   0.931   1.250
  553SOL    HW2 1704   1.986   0.911   1.245
  554SOL     OW 1705   2.179   0.251   1.801
  554SOL    HW1 1706   2.250   0.322   1.807
  554SOL    HW2 1707   2.091   0.290   1.829
  555SOL     OW 1708   2.460   0.729   0.270
  555SOL    HW1 1709   2.484   0.798   0.202
  555SOL    HW2 1710   2.382   0.762   0.324
  556SOL     OW 1711   2.669   0.605   1.465
  556SOL    HW1 1712   2.622   0.602   1.554
  556SOL    HW2 1713   2.618   0.550   1.399
  557SOL     OW 1714   2.835   0.890   1.572
  557SOL    HW1 1715   2.881   0.806   1.543
  557SOL    HW2 1716   2.779   0.924   1.497
  558SOL     OW 1717   2.853   0.410   1.242
  558SOL    HW1 1718   2.776   0.444   1.296
  558SOL    HW2 1719   2.819   0.359   1.163
  559SOL     OW 1720   2.903   0.701   0.429
  559SOL    HW1 1721   2.929   0.697   0.525
  559SOL    HW2 1722   2.818   0.650   0.415
  560SOL     OW 1723   1.938   0.811   0.789
  560SOL    HW1 1724   2.037   0.799   0.798
  560SOL    HW2 1725   1.914   0.906   0.810
  561SOL     OW 1726   2.727   0.348   0.195
  561SOL    HW1 1727   2.786   0.411   0.146
  561SOL    HW2 1728   2.746   0.254   0.166
  562SOL     OW 1729   2.412   0.196   0.885
  562SOL    HW1 1730   2.407   0.191   0.985
  562SOL    HW2 1731   2.414   0.292   0.856
  563SOL     OW 1732   2.870   1.456   0.477
  563SOL    HW1 1733   2.824   1.528   0.425
  563SOL    HW2 1734   2.866   1.476   0.575
  564SOL     OW 1735   2.213   1.801   0.853
  564SOL    HW1 1736   2.263   1.715   0.859
  564SOL    HW2 1737   2.278   1.878   0.850
  565SOL     OW 1738   2.183   0.943   0.242
  565SOL    HW1 1739   2.265   0.982   0.200
  565SOL    HW2 1740   2.156   0.861   0.193
  566SOL     OW 1741   2.323   1.266   1.727
  566SOL    HW1 1742   2.273   1.267   1.641
  566SOL    HW2 1743   2.260   1.248   1.803
  567SOL     OW 1744   2.064   0.285   1.498
  567SOL    HW1 1745   1.984   0.345   1.485
  567SOL    HW2 1746   2.054   0.236   1.584
  568SOL     OW 1747   2.326   1.743   0.323
  568SOL    HW1 1748   2.359   1.782   0.409
  568SOL    HW2 1749   2.402   1.736   0.258
  569SOL     OW 1750   2.111   1.785   1.241
  569SOL    HW1 1751   2.168   1.720   1.291
  569SOL    HW2 1752   2.095   1.752   1.148
  570SOL     OW 1753   2.802   1.698   0.904
  570SOL    HW1 1754   2.882   1.641   0.925
  570SOL    HW2 1755   2.753   1.658   0.827
  571SOL     OW 1756   2.244   0.700   0.480
  571SOL    HW1 1757   2.289   0.610   0.477
  571SOL    HW2 1758   2.150   0.689   0.513
  572SOL     OW 1759   2.476   0.122   0.117
  572SOL    HW1 1760   2.574   0.100   0.124
  572SOL    HW2 1761   2.445   0.105   0.024
  573SOL     OW 1762   2.643   0.264   1.749
  573SOL    HW1 1763   2.710   0.203   1.792
  573SOL    HW2 1764   2.570   0.283   1.814
  574SOL     OW 1765   2.750   1.514   1.195
  574SOL    HW1 1766   2.727   1.489   1.101
  574SOL    HW2 1767   2.811   1.445   1.234
  575SOL     OW 1768   2.665   1.402   0.924
  575SOL    HW1 1769   2.755   1.416   0.882
  575SOL    HW2 1770   2.594   1.404   0.853
  576SOL     OW 1771   2.784   0.503   0.899
  576SOL    HW1 1772   2.759   0.494   0.803
  576SOL    HW2 1773   2.832   0.421   0.930
  577SOL     OW 1774   2.401   0.064   0.512
  577SOL    HW1 1775   2.320   0.065   0.570
  577SOL    HW2 1776   2.404   0.147   0.457
  578SOL     OW 1777   3.296   1.188   0.041
  578SOL    HW1 1778   3.328   1.112   0.098
  578SOL    HW2 1779   3.204   1.215   0.071
  579SOL     OW 1780   2.159   0.035   0.171
  579SOL    HW1 1781   2.208   0.119   0.150
  579SOL    HW2 1782   2.221  -0.030   0.216
  580SOL     OW 1783   2.797   0.236   0.480
  580SOL    HW1 1784   2.749   0.277   0.402
  580SOL    HW2 1785   2.896   0.234   0.461
  581SOL     OW 1786   3.089   1.570   0.793
  581SOL    HW1 1787   3.110   1.644   0.728
  581SOL    HW2 1788   3.157   1.570   0.866
  582SOL     OW 1789   2.321   1.152   0.741
  582SOL    HW1 1790   2.250   1.125   0.806
  582SOL    HW2 1791   2.295   1.124   0.648
  583SOL     OW 1792   2.894   0.549   0.016
  583SOL    HW1 1793   2.853   0.631  -0.023
  583SOL    HW2 1794   2.958   0.575   0.089
  584SOL     OW 1795   1.940   0.556   1.386
  584SOL    HW1 1796   2.032   0.555   1.345
  584SOL    HW2 1797   1.934   0.630   1.453
  585SOL     OW 1798   2.423   0.222   1.147
  585SOL    HW1 1799   2.461   0.138   1.184
  585SOL    HW2 1800   2.335   0.241   1.191
  586SOL     OW 1801   2.728   0.454   0.642
  586SOL    HW1 1802   2.696   0.526   0.580
  586SOL    HW2 1803   2.752   0.373   0.589
  587SOL     OW 1804   2.879   0.039   0.753
  587SOL    HW1 1805   2.807   0.044   0.684
  587SOL    HW2 1806   2.855  -0.030   0.822
  588SOL     OW 1807   2.350   1.385   0.174
  588SOL    HW1 1808   2.263   1.370   0.221
  588SOL    HW2 1809   2.333   1.411   0.079
  589SOL     OW 1810   2.389   0.256   0.328
  589SOL    HW1 1811   2.416   0.197   0.253
  589SOL    HW2 1812   2.389   0.351   0.297
  590SOL     OW 1813   2.777   0.089   1.402
  590SOL    HW1 1814   2.802   0.069   1.307
  590SOL    HW2 1815   2.849   0.145   1.444
  591SOL     OW 1816   2.842   1.116   1.719
  591SOL    HW1 1817   2.743   1.122   1.729
  591SOL    HW2 1818   2.865   1.036   1.663
  592SOL     OW 1819   2.567   1.050   0.368
  592SOL    HW1 1820   2.553   1.057   0.467
  592SOL    HW2 1821   2.651   0.999   0.350
  593SOL     OW 1822   2.272   0.813   1.251
  593SOL    HW1 1823   2.358   0.825   1.301
  593SOL    HW2 1824   2.230   0.726   1.278
  594SOL     OW 1825   2.229   1.100   0.501
  594SOL    HW1 1826   2.222   1.183   0.445
  594SOL    HW2 1827   2.233   1.020   0.441
  595SOL     OW 1828   2.428   0.537   0.865
  595SOL    HW1 1829   2.440   0.603   0.791
  595SOL    HW2 1830   2.474   0.571   0.948
  596SOL     OW 1831   2.216   1.510   1.329
  596SOL    HW1 1832   2.195   1.466   1.242
  596SOL    HW2 1833   2.313   1.536   1.332
  597SOL     OW 1834   2.264   0.751   1.598
  597SOL    HW1 1835   2.332   0.806   1.551
  597SOL    HW2 1836   2.304   0.663   1.625
  598SOL     OW 1837   2.875   0.105   1.770
  598SOL    HW1 1838   2.881   0.190   1.718
  598SOL    HW2 1839   2.907   0.029   1.713
  599SOL     OW 1840   2.366   0.050   1.740
  599SOL    HW1 1841   2.324  -0.007   1.670
  599SOL    HW2 1842   2.300   0.119   1.772
  600SOL     OW 1843   2.435   0.870   1.029
  600SOL    HW1 1844   2.479   0.959   1.020
  600SOL    HW2 1845   2.372   0.870   1.106
  601SOL     OW 1846   3.071   0.525   0.275
  601SOL    HW1 1847   3.084   0.441   0.329
  601SOL    HW2 1848   3.042   0.599   0.335
  602SOL     OW 1849   2.169   0.213   1.231
  602SOL    HW1 1850   2.146   0.250   1.321
  602SOL    HW2 1851   2.139   0.118   1.225
  603SOL     OW 1852   1.899   1.310   1.282
  603SOL    HW1 1853   1.952   1.261   1.350
  603SOL    HW2 1854   1.921   1.408   1.287
  604SOL     OW 1855   2.594   0.634   1.064
  604SOL    HW1 1856   2.653   0.608   0.988
  604SOL    HW2 1857   2.566   0.730   1.053
  605SOL     OW 1858   2.169   0.063   0.618
  605SOL    HW1 1859   2.158   0.157   0.651
  605SOL    HW2 1860   2.164   0.000   0.695
  606SOL     OW 1861   2.885   0.766   0.966
  606SOL    HW1 1862   2.900   0.787   1.062
  606SOL    HW2 1863   2.855   0.671   0.957
  607SOL     OW 1864   2.842   1.573   1.700
  607SOL    HW1 1865   2.822   1.617   1.612
  607SOL    HW2 1866   2.881   1.482   1.684
  608SOL     OW 1867   2.212   0.898   1.804
  608SOL    HW1 1868   2.288   0.942   1.852
  608SOL    HW2 1869   2.247   0.851   1.722
  609SOL     OW 1870   2.930   1.333   0.849
  609SOL    HW1 1871   2.937   1.249   0.794
  609SOL    HW2 1872   2.992   1.402   0.813
  610SOL     OW 1873   2.181   0.810   0.949
  610SOL    HW1 1874   2.274   0.846   0.954
  610SOL    HW2 1875   2.175   0.725   1.001
  611SOL     OW 1876   2.201   0.509   1.006
  611SOL    HW1 1877   2.149   0.426   0.989
  611SOL    HW2 1878   2.278   0.514   0.942
  612SOL     OW 1879   3.000   0.380   1.678
  612SOL    HW1 1880   2.955   0.443   1.742
  612SOL    HW2 1881   3.093   0.411   1.661
  613SOL     OW 1882   1.870   1.326   0.200
  613SOL    HW1 1883   1.777   1.347   0.169
  613SOL    HW2 1884   1.880   1.227   0.213
  614SOL     OW 1885   1.950   1.801   0.927
  614SOL    HW1 1886   1.908   1.715   0.900
  614SOL    HW2 1887   2.044   1.804   0.893
  615SOL     OW 1888   2.366   1.568   0.910
  615SOL    HW1 1889   2.432   1.642   0.919
  615SOL    HW2 1890   2.410   1.489   0.868
  616SOL     OW 1891   2.864   0.796   1.238
  616SOL    HW1 1892   2.905   0.764   1.324
  616SOL    HW2 1893   2.768   0.769   1.235
  617SOL     OW 1894   1.902   0.544   1.114
  617SOL    HW1 1895   1.987   0.511   1.073
  617SOL    HW2 1896   1.915   0.559   1.212
  618SOL     OW 1897   2.051   0.520   1.722
  618SOL    HW1 1898   2.110   0.480   1.652
  618SOL    HW2 1899   1.993   0.591   1.681
  619SOL     OW 1900   2.677   0.572   0.325
  619SOL    HW1 1901   2.684   0.483   0.279
  619SOL    HW2 1902   2.583   0.606   0.317
  620SOL     OW 1903   2.533   0.464   1.269
  620SOL    HW1 1904   2.499   0.375   1.239
  620SOL    HW2 1905   2.559   0.518   1.189
  621SOL     OW 1906   2.792   1.678   1.465
  621SOL    HW1 1907   2.768   1.660   1.370
  621SOL    HW2 1908   2.822   1.772   1.475
  622SOL     OW 1909   2.335   0.500   0.191
  622SOL    HW1 1910   2.396   0.580   0.195
  622SOL    HW2 1911   2.240   0.531   0.198
  623SOL     OW 1912   2.021   1.137   1.466
  623SOL    HW1 1913   2.043   1.076   1.542
  623SOL    HW2 1914   2.031   1.088   1.380
  624SOL     OW 1915   1.945   1.258   1.022
  624SOL    HW1 1916   1.940   1.257   1.122
  624SOL    HW2 1917   1.862   1.217   0.984
  625SOL     OW 1918   2.550   1.662   1.716
  625SOL    HW1 1919   2.494   1.743   1.725
  625SOL    HW2 1920   2.602   1.666   1.630
  626SOL     OW 1921   2.765   0.086   0.133
  626SOL    HW1 1922   2.816   0.087   0.047
  626SOL    HW2 1923   2.821   0.044   0.204
  627SOL     OW 1924   1.992   1.794   1.851
  627SOL    HW1 1925   1.951   1.720   1.904
  627SOL    HW2 1926   2.056   1.845   1.909
  628SOL     OW 1927   2.692   1.273   1.422
  628SOL    HW1 1928   2.687   1.306   1.517
  628SOL    HW2 1929   2.606   1.292   1.376
  629SOL     OW 1930   2.534   1.616   0.154
  629SOL    HW1 1931   2.543   1.626   0.055
  629SOL    HW2 1932   2.494   1.527   0.175
  630SOL     OW 1933   2.125   0.326   0.720
  630SOL    HW1 1934   2.046   0.377   0.686
  630SOL    HW2 1935   2.116   0.311   0.818
  631SOL     OW 1936   2.684   1.002   1.372
  631SOL    HW1 1937   2.724   1.001   1.280
  631SOL    HW2 1938   2.694   1.094   1.412
  632SOL     OW 1939   2.778   0.910   0.291
  632SOL    HW1 1940   2.841   0.948   0.223
  632SOL    HW2 1941   2.818   0.827   0.330
  633SOL     OW 1942   2.234   1.288   1.490
  633SOL    HW1 1943   2.221   1.381   1.456
  633SOL    HW2 1944   2.150   1.236   1.477
  634SOL     OW 1945   2.901   1.098   0.696
  634SOL    HW1 1946   2.831   1.051   0.750
  634SOL    HW2 1947   2.960   1.030   0.653
  635SOL     OW 1948   2.876   0.236   0.971
  635SOL    HW1 1949   2.868   0.200   0.878
  635SOL    HW2 1950   2.874   0.160   1.036
  636SOL     OW 1951   2.452   1.487   0.491
  636SOL    HW1 1952   2.494   1.429   0.421
  636SOL    HW2 1953   2.408   1.566   0.447
  637SOL     OW 1954   2.117   1.348   0.290
  637SOL    HW1 1955   2.021   1.349   0.263
  637SOL    HW2 1956   2.129   1.401   0.374
  638SOL     OW 1957   1.967   1.013   1.726
  638SOL    HW1 1958   1.890   0.980   1.780
  638SOL    HW2 1959   2.052   0.983   1.768
  639SOL     OW 1960   2.534   0.203   1.489
  639SOL    HW1 1961   2.624   0.187   1.449
  639SOL    HW2 1962   2.542   0.208   1.588
  640SOL     OW 1963   1.934   0.166   0.318
  640SOL    HW1 1964   1.917   0.249   0.264
  640SOL    HW2 1965   2.024   0.129   0.296
  641SOL     OW 1966   2.475   0.842   1.431
  641SOL    HW1 1967   2.531   0.923   1.414
  641SOL    HW2 1968   2.534   0.762   1.434
  642SOL     OW 1969   2.578   0.565   1.708
  642SOL    HW1 1970   2.597   0.630   1.782
  642SOL    HW2 1971   2.638   0.485   1.717
  643SOL     OW 1972   2.456   0.745   0.652
  643SOL    HW1 1973   2.506   0.830   0.633
  643SOL    HW2 1974   2.368   0.747   0.604
  644SOL     OW 1975   2.721   1.374   0.016
  644SOL    HW1 1976   2.675   1.389   0.104
  644SOL    HW2 1977   2.765   1.459  -0.014
  645SOL     OW 1978   2.523   1.790   0.953
  645SOL    HW1 1979   2.477   1.878   0.940
  645SOL    HW2 1980   2.622   1.802   0.946
  646SOL     OW 1981   2.721   0.956   0.861
  646SOL    HW1 1982   2.775   0.887   0.909
  646SOL    HW2 1983   2.689   1.025   0.927
  647SOL     OW 1984   2.945   0.984   0.087
  647SOL    HW1 1985   2.922   1.037   0.005
  647SOL    HW2 1986   3.026   0.928   0.068
  648SOL     OW 1987   2.083   1.314   1.844
  648SOL    HW1 1988   2.018   1.241   1.823
  648SOL    HW2 1989   2.087   1.328   1.942
  649SOL     OW 1990   1.941   1.240   0.653
  649SOL    HW1 1991   1.940   1.193   0.741
  649SOL    HW2 1992   2.023   1.212   0.602
  650SOL     OW 1993   2.534   1.391   1.624
  650SOL    HW1 1994   2.456   1.341   1.662
  650SOL    HW2 1995   2.531   1.486   1.655
  651SOL     OW 1996   2.290   0.424   0.520
  651SOL    HW1 1997   2.320   0.352   0.458
  651SOL    HW2 1998   2.251   0.384   0.603
  652SOL     OW 1999   2.179   0.547   1.280
  652SOL    HW1 2000   2.217   0.488   1.352
  652SOL    HW2 2001   2.219   0.521   1.192
  653SOL     OW 2002   2.674   1.586   0.687
  653SOL    HW1 2003   2.706   1.596   0.593
  653SOL    HW2 2004   2.595   1.524   0.689
  654SOL     OW 2005   2.863   0.034   1.154
  654SOL    HW1 2006   2.800  -0.038   1.123
  654SOL    HW2 2007   2.956  -0.002   1.154
  655SOL     OW 2008   2.632   1.330   0.301
  655SOL    HW1 2009   2.586   1.243   0.318
  655SOL    HW2 2010   2.723   1.327   0.342
  656SOL     OW 2011   2.480   1.567   1.284
  656SOL    HW1 2012   2.475   1.649   1.341
  656SOL    HW2 2013   2.569   1.564   1.239
  657SOL     OW 2014   1.901   1.077   0.300
  657SOL    HW1 2015   2.000   1.066   0.291
  657SOL    HW2 2016   1.861   0.991   0.332
  658SOL     OW 2017   2.737   1.646   0.337
  658SOL    HW1 2018   2.660   1.611   0.283
  658SOL    HW2 2019   2.705   1.717   0.399
  659SOL     OW 2020   2.092   0.628   1.975
  659SOL    HW1 2021   1.999   0.626   2.012
  659SOL    HW2 2022   2.093   0.589   1.883
  660SOL     OW 2023   2.087   0.275   2.858
  660SOL    HW1 2024   2.122   0.258   2.950
  660SOL    HW2 2025   1.999   0.230   2.846
  661SOL     OW 2026   1.881   0.368   2.509
  661SOL    HW1 2027   1.799   0.411   2.548
  661SOL    HW2 2028   1.853   0.295   2.446
  662SOL     OW 2029   2.630   1.144   2.885
  662SOL    HW1 2030   2.552   1.161   2.945
  662SOL    HW2 2031   2.664   1.231   2.849
  663SOL     OW 2032   2.547   1.012   2.527
  663SOL    HW1 2033   2.616   0.996   2.597
  663SOL    HW2 2034   2.474   1.069   2.565
  664SOL     OW 2035   2.197   1.435   2.923
  664SOL    HW1 2036   2.119   1.404   2.870
  664SOL    HW2 2037   2.255   1.493   2.866
  665SOL     OW 2038   2.093   1.713   2.345
  665SOL    HW1 2039   2.127   1.790   2.399
  665SOL    HW2 2040   2.137   1.713   2.255
  666SOL     OW 2041   2.092   1.434   2.400
  666SOL    HW1 2042   2.066   1.530   2.400
  666SOL    HW2 2043   2.021   1.380   2.445
  667SOL     OW 2044   2.102   1.091   2.748
  667SOL    HW1 2045   2.116   1.007   2.800
  667SOL    HW2 2046   2.047   1.155   2.803
  668SOL     OW 2047   2.468   0.964   1.985
  668SOL    HW1 2048   2.475   1.048   1.931
  668SOL    HW2 2049   2.514   0.977   2.073
  669SOL     OW 2050   1.984   0.643   2.425
  669SOL    HW1 2051   1.939   0.555   2.442
  669SOL    HW2 2052   1.983   0.697   2.509
  670SOL     OW 2053   1.889   1.596   1.979
  670SOL    HW1 2054   1.870   1.500   2.000
  670SOL    HW2 2055   1.856   1.654   2.054
  671SOL     OW 2056   2.475   1.365   2.588
  671SOL    HW1 2057   2.426   1.278   2.597
  671SOL    HW2 2058   2.452   1.408   2.501
  672SOL     OW 2059   2.671   0.004   2.364
  672SOL    HW1 2060   2.711   0.095   2.355
  672SOL    HW2 2061   2.571   0.012   2.370
  673SOL     OW 2062   2.460   0.729   2.132
  673SOL    HW1 2063   2.484   0.798   2.064
  673SOL    HW2 2064   2.382   0.762   2.186
  674SOL     OW 2065   2.903   0.701   2.291
  674SOL    HW1 2066   2.929   0.697   2.387
  674SOL    HW2 2067   2.818   0.650   2.277
  675SOL     OW 2068   1.938   0.811   2.651
  675SOL    HW1 2069   2.037   0.799   2.660
  675SOL    HW2 2070   1.914   0.906   2.672
  676SOL     OW 2071   2.727   0.348   2.057
  676SOL    HW1 2072   2.786   0.411   2.008
  676SOL    HW2 2073   2.746   0.254   2.028
  677SOL     OW 2074   2.412   0.196   2.747
  677SOL    HW1 2075   2.407   0.191   2.847
  677SOL    HW2 2076   2.414   0.292   2.718
  678SOL     OW 2077   2.870   1.456   2.339
  678SOL    HW1 2078   2.824   1.528   2.287
  678SOL    HW2 2079   2.866   1.476   2.437
  679SOL     OW 2080   2.213   1.801   2.715
  679SOL    HW1 2081   2.263   1.715   2.721
  679SOL    HW2 2082   2.278   1.878   2.712
  680SOL     OW 2083   2.183   0.943   2.104
  680SOL    HW1 2084   2.265   0.982   2.062
  680SOL    HW2 2085   2.156   0.861   2.055
  681SOL     OW 2086   2.326   1.743   2.185
  681SOL    HW1 2087   2.359   1.782   2.271
  681SOL    HW2 2088   2.402   1.736   2.120
  682SOL     OW 2089   2.111   1.785   3.103
  682SOL    HW1 2090   2.168   1.720   3.153
  682SOL    HW2 2091   2.095   1.752   3.010
  683SOL     OW 2092   2.802   1.698   2.766
  683SOL    HW1 2093   2.882   1.641   2.787
  683SOL    HW2 2094   2.753   1.658   2.689
  684SOL     OW 2095   2.244   0.700   2.342
  684SOL    HW1 2096   2.289   0.610   2.339
  684SOL    HW2 2097   2.150   0.689   2.375
  685SOL     OW 2098   2.476   0.122   1.979
  685SOL    HW1 2099   2.574   0.100   1.986
  685SOL    HW2 2100   2.445   0.105   1.886
  686SOL     OW 2101   2.665   1.402   2.786
  686SOL    HW1 2102   2.755   1.416   2.744
  686SOL    HW2 2103   2.594   1.404   2.715
  687SOL     OW 2104   2.784   0.503   2.761
  687SOL    HW1 2105   2.759   0.494   2.665
  687SOL    HW2 2106   2.832   0.421   2.792
  688SOL     OW 2107   2.401   0.064   2.374
  688SOL    HW1 2108   2.320   0.065   2.432
  688SOL    HW2 2109   2.404   0.147   2.319
  689SOL     OW 2110   2.159   0.035   2.033
  689SOL    HW1 2111   2.208   0.119   2.012
  689SOL    HW2 2112   2.221  -0.030   2.078
  690SOL     OW 2113   2.797   0.236   2.342
  690SOL    HW1 2114   2.749   0.277   2.264
  690SOL    HW2 2115   2.896   0.234   2.323
  691SOL     OW 2116   3.089   1.570   2.655
  691SOL    HW1 2117   3.110   1.644   2.590
  691SOL    HW2 2118   3.157   1.570   2.728
  692SOL     OW 2119   2.321   1.152   2.603
  692SOL    HW1 2120   2.250   1.125   2.668
  692SOL    HW2 2121   2.295   1.124   2.510
  693SOL     OW 2122   2.894   0.549   1.878
  693SOL    HW1 2123   2.853   0.631   1.839
  693SOL    HW2 2124   2.958   0.575   1.951
  694SOL     OW 2125   2.728   0.454   2.504
  694SOL    HW1 2126   2.696   0.526   2.442
  694SOL    HW2 2127   2.752   0.373   2.451
  695SOL     OW 2128   2.879   0.039   2.615
  695SOL    HW1 2129   2.807   0.044   2.546
  695SOL    HW2 2130   2.855  -0.030   2.684
  696SOL     OW 2131   2.350   1.385   2.036
  696SOL    HW1 2132   2.263   1.370   2.083
  696SOL    HW2 2133   2.333   1.411   1.941
  697SOL     OW 2134   2.389   0.256   2.190
  697SOL    HW1 2135   2.416   0.197   2.115
  697SOL    HW2 2136   2.389   0.351   2.159
  698SOL     OW 2137   2.567   1.050   2.230
  698SOL    HW1 2138   2.553   1.057   2.329
  698SOL    HW2 2139   2.651   0.999   2.212
  699SOL     OW 2140   2.229   1.100   2.363
  699SOL    HW1 2141   2.222   1.183   2.307
  699SOL    HW2 2142   2.233   1.020   2.303
  700SOL     OW 2143   2.428   0.537   2.727
  700SOL    HW1 2144   2.440   0.603   2.653
  700SOL    HW2 2145   2.474   0.571   2.810
  701SOL     OW 2146   2.435   0.870   2.891
  701SOL    HW1 2147   2.479   0.959   2.882
  701SOL    HW2 2148   2.372   0.870   2.968
  702SOL     OW 2149   3.071   0.525   2.137
  702SOL    HW1 2150   3.084   0.441   2.191
  702SOL    HW2 2151   3.042   0.599   2.197
  703SOL     OW 2152   2.594   0.634   2.926
  703SOL    HW1 2153   2.653   0.608   2.850
  703SOL    HW2 2154   2.566   0.730   2.915
  704SOL     OW 2155   2.169   0.063   2.480
  704SOL    HW1 2156   2.158   0.157   2.513
  704SOL    HW2 2157   2.164   0.000   2.557
  705SOL     OW 2158   2.885   0.766   2.828
  705SOL    HW1 2159   2.900   0.787   2.924
  705SOL    HW2 2160   2.855   0.671   2.819
  706SOL     OW 2161   2.930   1.333   2.711
  706SOL    HW1 2162   2.937   1.249   2.656
  706SOL    HW2 2163   2.992   1.402   2.675
  707SOL     OW 2164   2.181   0.810   2.811
  707SOL    HW1 2165   2.274   0.846   2.816
  707SOL    HW2 2166   2.175   0.725   2.863
  708SOL     OW 2167   2.201   0.509   2.868
  708SOL    HW1 2168   2.149   0.426   2.851
  708SOL    HW2 2169   2.278   0.514   2.804
  709SOL     OW 2170   1.870   1.326   2.062
  709SOL    HW1 2171   1.777   1.347   2.031
  709SOL    HW2 2172   1.880   1.227   2.075
  710SOL     OW 2173   1.950   1.801   2.789
  710SOL    HW1 2174   1.908   1.715   2.762
  710SOL    HW2 2175   2.044   1.804   2.755
  711SOL     OW 2176   2.366   1.568   2.772
  711SOL    HW1 2177   2.432   1.642   2.781
  711SOL    HW2 2178   2.410   1.489   2.730
  712SOL     OW 2179   2.864   0.796   3.100
  712SOL    HW1 2180   2.905   0.764   3.186
  712SOL    HW2 2181   2.768   0.769   3.097
  713SOL     OW 2182   2.677   0.572   2.187
  713SOL    HW1 2183   2.684   0.483   2.141
  713SOL    HW2 2184   2.583   0.606   2.179
  714SOL     OW 2185   2.533   0.464   3.131
  714SOL    HW1 2186   2.499   0.375   3.101
  714SOL    HW2 2187   2.559   0.518   3.051
  715SOL     OW 2188   2.335   0.500   2.053
  715SOL    HW1 2189   2.396   0.580   2.057
  715SOL    HW2 2190   2.240   0.531   2.060
  716SOL     OW 2191   1.945   1.258   2.884
  716SOL    HW1 2192   1.940   1.257   2.984
  716SOL    HW2 2193   1.862   1.217   2.846
  717SOL     OW 2194   2.534   1.616   2.016
  717SOL    HW1 2195   2.543   1.626   1.917
  717SOL    HW2 2196   2.494   1.527   2.037
  718SOL     OW 2197   2.125   0.326   2.582
  718SOL    HW1 2198   2.046   0.377   2.548
  718SOL    HW2 2199   2.116   0.311   2.680
  719SOL     OW 2200   2.778   0.910   2.153
  719SOL    HW1 2201   2.841   0.948   2.085
  719SOL    HW2 2202   2.818   0.827   2.192
  720SOL     OW 2203   2.901   1.098   2.558
  720SOL    HW1 2204   2.831   1.051   2.612
  720SOL    HW2 2205   2.960   1.030   2.515
  721SOL     OW 2206   2.876   0.236   2.833
  721SOL    HW1 2207   2.868   0.200   2.740
  721SOL    HW2 2208   2.874   0.160   2.898
  722SOL     OW 2209   2.452   1.487   2.353
  722SOL    HW1 2210   2.494   1.429   2.283
  722SOL    HW2 2211   2.408   1.566   2.309
  723SOL     OW 2212   2.117   1.348   2.152
  723SOL    HW1 2213   2.021   1.349   2.125
  723SOL    HW2 2214   2.129   1.401   2.236
  724SOL     OW 2215   1.937   0.345   1.895
  724SOL    HW1 2216   1.845   0.317   1.866
  724SOL    HW2 2217   1.968   0.422   1.839
  725SOL     OW 2218   1.934   0.166   2.180
  725SOL    HW1 2219   1.917   0.249   2.126
  725SOL    HW2 2220   2.024   0.129   2.158
  726SOL     OW 2221   2.456   0.745   2.514
  726SOL    HW1 2222   2.506   0.830   2.495
  726SOL    HW2 2223   2.368   0.747   2.466
  727SOL     OW 2224   2.721   1.374   1.878
  727SOL    HW1 2225   2.675   1.389   1.966
  727SOL    HW2 2226   2.765   1.459   1.848
  728SOL     OW 2227   2.523   1.790   2.815
  728SOL    HW1 2228   2.477   1.878   2.802
  728SOL    HW2 2229   2.622   1.802   2.808
  729SOL     OW 2230   2.721   0.956   2.723
  729SOL    HW1 2231   2.775   0.887   2.771
  729SOL    HW2 2232   2.689   1.025   2.789
  730SOL     OW 2233   2.945   0.984   1.949
  730SOL    HW1 2234   2.922   1.037   1.867
  730SOL    HW2 2235   3.026   0.928   1.930
  731SOL     OW 2236   1.941   1.240   2.515
  731SOL    HW1 2237   1.940   1.193   2.603
  731SOL    HW2 2238   2.023   1.212   2.464
  732SOL     OW 2239   2.290   0.424   2.382
  732SOL    HW1 2240   2.320   0.352   2.320
  732SOL    HW2 2241   2.251   0.384   2.465
  733SOL     OW 2242   2.674   1.586   2.549
  733SOL    HW1 2243   2.706   1.596   2.455
  733SOL    HW2 2244   2.595   1.524   2.551
  734SOL     OW 2245   2.632   1.330   2.163
  734SOL    HW1 2246   2.586   1.243   2.180
  734SOL    HW2 2247   2.723   1.327   2.204
  735SOL     OW 2248   1.901   1.077   2.162
  735SOL    HW1 2249   2.000   1.066   2.153
  735SOL    HW2 2250   1.861   0.991   2.194
  736SOL     OW 2251   2.737   1.646   2.199
  736SOL    HW1 2252   2.660   1.611   2.145
  736SOL    HW2 2253   2.705   1.717   2.261
  737SOL     OW 2254   2.092   2.490   0.113
  737SOL    HW1 2255   1.999   2.488   0.150
  737SOL    HW2 2256   2.093   2.451   0.021
  738SOL     OW 2257   2.087   2.137   0.996
  738SOL    HW1 2258   2.122   2.120   1.088
  738SOL    HW2 2259   1.999   2.092   0.984
  739SOL     OW 2260   1.881   2.230   0.647
  739SOL    HW1 2261   1.799   2.273   0.686
  739SOL    HW2 2262   1.853   2.157   0.584
  740SOL     OW 2263   2.630   3.006   1.023
  740SOL    HW1 2264   2.552   3.023   1.083
  740SOL    HW2 2265   2.664   3.093   0.987
  741SOL     OW 2266   2.712   2.660   1.823
  741SOL    HW1 2267   2.708   2.736   1.888
  741SOL    HW2 2268   2.734   2.696   1.732
  742SOL     OW 2269   2.547   2.874   0.665
  742SOL    HW1 2270   2.616   2.858   0.735
  742SOL    HW2 2271   2.474   2.931   0.703
  743SOL     OW 2272   2.300   2.254   1.499
  743SOL    HW1 2273   2.382   2.198   1.508
  743SOL    HW2 2274   2.219   2.196   1.503
  744SOL     OW 2275   2.092   3.296   0.538
  744SOL    HW1 2276   2.066   3.392   0.538
  744SOL    HW2 2277   2.021   3.242   0.583
  745SOL     OW 2278   2.102   2.953   0.886
  745SOL    HW1 2279   2.116   2.869   0.938
  745SOL    HW2 2280   2.047   3.017   0.941
  746SOL     OW 2281   2.468   2.826   0.123
  746SOL    HW1 2282   2.475   2.910   0.069
  746SOL    HW2 2283   2.514   2.839   0.211
  747SOL     OW 2284   1.984   2.505   0.563
  747SOL    HW1 2285   1.939   2.417   0.580
  747SOL    HW2 2286   1.983   2.559   0.647
  748SOL     OW 2287   1.975   2.599   1.597
  748SOL    HW1 2288   2.063   2.586   1.642
  748SOL    HW2 2289   1.962   2.696   1.575
  749SOL     OW 2290   2.475   3.227   0.726
  749SOL    HW1 2291   2.426   3.140   0.735
  749SOL    HW2 2292   2.452   3.270   0.639
  750SOL     OW 2293   2.671   1.866   0.502
  750SOL    HW1 2294   2.711   1.957   0.493
  750SOL    HW2 2295   2.571   1.874   0.508
  751SOL     OW 2296   2.059   2.838   1.264
  751SOL    HW1 2297   2.148   2.793   1.250
  751SOL    HW2 2298   1.986   2.773   1.245
  752SOL     OW 2299   2.179   2.113   1.801
  752SOL    HW1 2300   2.250   2.184   1.807
  752SOL    HW2 2301   2.091   2.152   1.829
  753SOL     OW 2302   2.460   2.591   0.270
  753SOL    HW1 2303   2.484   2.660   0.202
  753SOL    HW2 2304   2.382   2.624   0.324
  754SOL     OW 2305   2.669   2.467   1.465
  754SOL    HW1 2306   2.622   2.464   1.554
  754SOL    HW2 2307   2.618   2.412   1.399
  755SOL     OW 2308   2.835   2.752   1.572
  755SOL    HW1 2309   2.881   2.668   1.543
  755SOL    HW2 2310   2.779   2.786   1.497
  756SOL     OW 2311   2.853   2.272   1.242
  756SOL    HW1 2312   2.776   2.306   1.296
  756SOL    HW2 2313   2.819   2.221   1.163
  757SOL     OW 2314   2.903   2.563   0.429
  757SOL    HW1 2315   2.929   2.559   0.525
  757SOL    HW2 2316   2.818   2.512   0.415
  758SOL     OW 2317   1.938   2.673   0.789
  758SOL    HW1 2318   2.037   2.661   0.798
  758SOL    HW2 2319   1.914   2.768   0.810
  759SOL     OW 2320   2.727   2.210   0.195
  759SOL    HW1 2321   2.786   2.273   0.146
  759SOL    HW2 2322   2.746   2.116   0.166
  760SOL     OW 2323   2.412   2.058   0.885
  760SOL    HW1 2324   2.407   2.053   0.985
  760SOL    HW2 2325   2.414   2.154   0.856
  761SOL     OW 2326   2.064   2.147   1.498
  761SOL    HW1 2327   1.984   2.207   1.485
  761SOL    HW2 2328   2.054   2.098   1.584
  762SOL     OW 2329   2.244   2.562   0.480
  762SOL    HW1 2330   2.289   2.472   0.477
  762SOL    HW2 2331   2.150   2.551   0.513
  763SOL     OW 2332   2.476   1.984   0.117
  763SOL    HW1 2333   2.574   1.962   0.124
  763SOL    HW2 2334   2.445   1.967   0.024
  764SOL     OW 2335   2.643   2.126   1.749
  764SOL    HW1 2336   2.710   2.065   1.792
  764SOL    HW2 2337   2.570   2.145   1.814
  765SOL     OW 2338   2.784   2.365   0.899
  765SOL    HW1 2339   2.759   2.356   0.803
  765SOL    HW2 2340   2.832   2.283   0.930
  766SOL     OW 2341   2.401   1.926   0.512
  766SOL    HW1 2342   2.320   1.927   0.570
  766SOL    HW2 2343   2.404   2.009   0.457
  767SOL     OW 2344   2.797   2.098   0.480
  767SOL    HW1 2345   2.749   2.139   0.402
  767SOL    HW2 2346   2.896   2.096   0.461
  768SOL     OW 2347   2.894   2.411   0.016
  768SOL    HW1 2348   2.853   2.493  -0.023
  768SOL    HW2 2349   2.958   2.437   0.089
  769SOL     OW 2350   1.940   2.418   1.386
  769SOL    HW1 2351   2.032   2.417   1.345
  769SOL    HW2 2352   1.934   2.492   1.453
  770SOL     OW 2353   2.423   2.084   1.147
  770SOL    HW1 2354   2.461   2.000   1.184
  770SOL    HW2 2355   2.335   2.103   1.191
  771SOL     OW 2356   2.728   2.316   0.642
  771SOL    HW1 2357   2.696   2.388   0.580
  771SOL    HW2 2358   2.752   2.235   0.589
  772SOL     OW 2359   2.879   1.901   0.753
  772SOL    HW1 2360   2.807   1.906   0.684
  772SOL    HW2 2361   2.855   1.832   0.822
  773SOL     OW 2362   2.389   2.118   0.328
  773SOL    HW1 2363   2.416   2.059   0.253
  773SOL    HW2 2364   2.389   2.213   0.297
  774SOL     OW 2365   2.777   1.951   1.402
  774SOL    HW1 2366   2.802   1.931   1.307
  774SOL    HW2 2367   2.849   2.007   1.444
  775SOL     OW 2368   2.272   2.675   1.251
  775SOL    HW1 2369   2.358   2.687   1.301
  775SOL    HW2 2370   2.230   2.588   1.278
  776SOL     OW 2371   2.428   2.399   0.865
  776SOL    HW1 2372   2.440   2.465   0.791
  776SOL    HW2 2373   2.474   2.433   0.948
  777SOL     OW 2374   2.264   2.613   1.598
  777SOL    HW1 2375   2.332   2.668   1.551
  777SOL    HW2 2376   2.304   2.525   1.625
  778SOL     OW 2377   2.875   1.967   1.770
  778SOL    HW1 2378   2.881   2.052   1.718
  778SOL    HW2 2379   2.907   1.891   1.713
  779SOL     OW 2380   2.366   1.912   1.740
  779SOL    HW1 2381   2.324   1.855   1.670
  779SOL    HW2 2382   2.300   1.981   1.772
  780SOL     OW 2383   2.435   2.732   1.029
  780SOL    HW1 2384   2.479   2.821   1.020
  780SOL    HW2 2385   2.372   2.732   1.106
  781SOL     OW 2386   3.071   2.387   0.275
  781SOL    HW1 2387   3.084   2.303   0.329
  781SOL    HW2 2388   3.042   2.461   0.335
  782SOL     OW 2389   2.169   2.075   1.231
  782SOL    HW1 2390   2.146   2.112   1.321
  782SOL    HW2 2391   2.139   1.980   1.225
  783SOL     OW 2392   2.594   2.496   1.064
  783SOL    HW1 2393   2.653   2.470   0.988
  783SOL    HW2 2394   2.566   2.592   1.053
  784SOL     OW 2395   2.169   1.925   0.618
  784SOL    HW1 2396   2.158   2.019   0.651
  784SOL    HW2 2397   2.164   1.862   0.695
  785SOL     OW 2398   2.885   2.628   0.966
  785SOL    HW1 2399   2.900   2.649   1.062
  785SOL    HW2 2400   2.855   2.533   0.957
  786SOL     OW 2401   2.212   2.760   1.804
  786SOL    HW1 2402   2.288   2.804   1.852
  786SOL    HW2 2403   2.247   2.713   1.722
  787SOL     OW 2404   2.181   2.672   0.949
  787SOL    HW1 2405   2.274   2.708   0.954
  787SOL    HW2 2406   2.175   2.587   1.001
  788SOL     OW 2407   2.201   2.371   1.006
  788SOL    HW1 2408   2.149   2.288   0.989
  788SOL    HW2 2409   2.278   2.376   0.942
  789SOL     OW 2410   3.000   2.242   1.678
  789SOL    HW1 2411   2.955   2.305   1.742
  789SOL    HW2 2412   3.093   2.273   1.661
  790SOL     OW 2413   3.022   2.069   1.477
  790SOL    HW1 2414   3.022   2.133   1.554
  790SOL    HW2 2415   3.050   2.117   1.394
  791SOL     OW 2416   2.864   2.658   1.238
  791SOL    HW1 2417   2.905   2.626   1.324
  791SOL    HW2 2418   2.768   2.631   1.235
  792SOL     OW 2419   1.902   2.406   1.114
  792SOL    HW1 2420   1.987   2.373   1.073
  792SOL    HW2 2421   1.915   2.421   1.212
  793SOL     OW 2422   2.051   2.382   1.722
  793SOL    HW1 2423   2.110   2.342   1.652
  793SOL    HW2 2424   1.993   2.453   1.681
  794SOL     OW 2425   2.677   2.434   0.325
  794SOL    HW1 2426   2.684   2.345   0.279
  794SOL    HW2 2427   2.583   2.468   0.317
  795SOL     OW 2428   2.533   2.326   1.269
  795SOL    HW1 2429   2.499   2.237   1.239
  795SOL    HW2 2430   2.559   2.380   1.189
  796SOL     OW 2431   2.335   2.362   0.191
  796SOL    HW1 2432   2.396   2.442   0.195
  796SOL    HW2 2433   2.240   2.393   0.198
  797SOL     OW 2434   2.021   2.999   1.466
  797SOL    HW1 2435   2.043   2.938   1.542
  797SOL    HW2 2436   2.031   2.950   1.380
  798SOL     OW 2437   2.765   1.948   0.133
  798SOL    HW1 2438   2.816   1.949   0.047
  798SOL    HW2 2439   2.821   1.906   0.204
  799SOL     OW 2440   2.125   2.188   0.720
  799SOL    HW1 2441   2.046   2.239   0.686
  799SOL    HW2 2442   2.116   2.173   0.818
  800SOL     OW 2443   2.684   2.864   1.372
  800SOL    HW1 2444   2.724   2.863   1.280
  800SOL    HW2 2445   2.694   2.956   1.412
  801SOL     OW 2446   2.778   2.772   0.291
  801SOL    HW1 2447   2.841   2.810   0.223
  801SOL    HW2 2448   2.818   2.689   0.330
  802SOL     OW 2449   2.876   2.098   0.971
  802SOL    HW1 2450   2.868   2.062   0.878
  802SOL    HW2 2451   2.874   2.022   1.036
  803SOL     OW 2452   1.967   2.875   1.726
  803SOL    HW1 2453   1.890   2.842   1.780
  803SOL    HW2 2454   2.052   2.845   1.768
  804SOL     OW 2455   2.534   2.065   1.489
  804SOL    HW1 2456   2.624   2.049   1.449
  804SOL    HW2 2457   2.542   2.070   1.588
  805SOL     OW 2458   1.934   2.028   0.318
  805SOL    HW1 2459   1.917   2.111   0.264
  805SOL    HW2 2460   2.024   1.991   0.296
  806SOL     OW 2461   2.475   2.704   1.431
  806SOL    HW1 2462   2.531   2.785   1.414
  806SOL    HW2 2463   2.534   2.624   1.434
  807SOL     OW 2464   2.578   2.427   1.708
  807SOL    HW1 2465   2.597   2.492   1.782
  807SOL    HW2 2466   2.638   2.347   1.717
  808SOL     OW 2467   2.456   2.607   0.652
  808SOL    HW1 2468   2.506   2.692   0.633
  808SOL    HW2 2469   2.368   2.609   0.604
  809SOL     OW 2470   2.721   2.818   0.861
  809SOL    HW1 2471   2.775   2.749   0.909
  809SOL    HW2 2472   2.689   2.887   0.927
  810SOL     OW 2473   2.290   2.286   0.520
  810SOL    HW1 2474   2.320   2.214   0.458
  810SOL    HW2 2475   2.251   2.246   0.603
  811SOL     OW 2476   2.179   2.409   1.280
  811SOL    HW1 2477   2.217   2.350   1.352
  811SOL    HW2 2478   2.219   2.383   1.192
  812SOL     OW 2479   2.863   1.896   1.154
  812SOL    HW1 2480   2.800   1.824   1.123
  812SOL    HW2 2481   2.956   1.860   1.154
  813SOL     OW 2482   1.901   2.939   0.300
  813SOL    HW1 2483   2.000   2.928   0.291
  813SOL    HW2 2484   1.861   2.853   0.332
  814SOL     OW 2485   2.092   2.490   1.975
  814SOL    HW1 2486   1.999   2.488   2.012
  814SOL    HW2 2487   2.093   2.451   1.883
  815SOL     OW 2488   2.087   2.137   2.858
  815SOL    HW1 2489   2.122   2.120   2.950
  815SOL    HW2 2490   1.999   2.092   2.846
  816SOL     OW 2491   1.881   2.230   2.509
  816SOL    HW1 2492   1.799   2.273   2.548
  816SOL    HW2 2493   1.853   2.157   2.446
  817SOL     OW 2494   2.630   3.006   2.885
  817SOL    HW1 2495   2.552   3.023   2.945
  817SOL    HW2 2496   2.664   3.093   2.849
  818SOL     OW 2497   2.547   2.874   2.527
  818SOL    HW1 2498   2.616   2.858   2.597
  818SOL    HW2 2499   2.474   2.931   2.565
  819SOL     OW 2500   2.092   3.296   2.400
  819SOL    HW1 2501   2.066   3.392   2.400
  819SOL    HW2 2502   2.021   3.242   2.445
  820SOL     OW 2503   2.102   2.953   2.748
  820SOL    HW1 2504   2.116   2.869   2.800
  820SOL    HW2 2505   2.047   3.017   2.803
  821SOL     OW 2506   2.468   2.826   1.985
  821SOL    HW1 2507   2.475   2.910   1.931
  821SOL    HW2 2508   2.514   2.839   2.073
  822SOL     OW 2509   1.984   2.505   2.425
  822SOL    HW1 2510   1.939   2.417   2.442
  822SOL    HW2 2511   1.983   2.559   2.509
  823SOL     OW 2512   2.475   3.227   2.588
  823SOL    HW1 2513   2.426   3.140   2.597
  823SOL    HW2 2514   2.452   3.270   2.501
  824SOL     OW 2515   2.671   1.866   2.364
  824SOL    HW1 2516   2.711   1.957   2.355
  824SOL    HW2 2517   2.571   1.874   2.370
  825SOL     OW 2518   2.059   2.838   3.126
  825SOL    HW1 2519   2.148   2.793   3.112
  825SOL    HW2 2520   1.986   2.773   3.107
  826SOL     OW 2521   2.460   2.591   2.132
  826SOL    HW1 2522   2.484   2.660   2.064
  826SOL    HW2 2523   2.382   2.624   2.186
  827SOL     OW 2524   2.903   2.563   2.291
  827SOL    HW1 2525   2.929   2.559   2.387
  827SOL    HW2 2526   2.818   2.512   2.277
  828SOL     OW 2527   1.938   2.673   2.651
  828SOL    HW1 2528   2.037   2.661   2.660
  828SOL    HW2 2529   1.914   2.768   2.672
  829SOL     OW 2530   2.727   2.210   2.057
  829SOL    HW1 2531   2.786   2.273   2.008
  829SOL    HW2 2532   2.746   2.116   2.028
  830SOL     OW 2533   2.412   2.058   2.747
  830SOL    HW1 2534   2.407   2.053   2.847
  830SOL    HW2 2535   2.414   2.154   2.718
  831SOL     OW 2536   2.244   2.562   2.342
  831SOL    HW1 2537   2.289   2.472   2.339
  831SOL    HW2 2538   2.150   2.551   2.375
  832SOL     OW 2539   2.476   1.984   1.979
  832SOL    HW1 2540   2.574   1.962   1.986
  832SOL    HW2 2541   2.445   1.967   1.886
  833SOL     OW 2542   2.784   2.365   2.761
  833SOL    HW1 2543   2.759   2.356   2.665
  833SOL    HW2 2544   2.832   2.283   2.792
  834SOL     OW 2545   2.401   1.926   2.374
  834SOL    HW1 2546   2.320   1.927   2.432
  834SOL    HW2 2547   2.404   2.009   2.319
  835SOL     OW 2548   2.159   1.897   2.033
  835SOL    HW1 2549   2.208   1.981   2.012
  835SOL    HW2 2550   2.221   1.832   2.078
  836SOL     OW 2551   2.797   2.098   2.342
  836SOL    HW1 2552   2.749   2.139   2.264
  836SOL    HW2 2553   2.896   2.096   2.323
  837SOL     OW 2554   2.894   2.411   1.878
  837SOL    HW1 2555   2.853   2.493   1.839
  837SOL    HW2 2556   2.958   2.437   1.951
  838SOL     OW 2557   2.728   2.316   2.504
  838SOL    HW1 2558   2.696   2.388   2.442
  838SOL    HW2 2559   2.752   2.235   2.451
  839SOL     OW 2560   2.879   1.901   2.615
  839SOL    HW1 2561   2.807   1.906   2.546
  839SOL    HW2 2562   2.855   1.832   2.684
  840SOL     OW 2563   2.389   2.118   2.190
  840SOL    HW1 2564   2.416   2.059   2.115
  840SOL    HW2 2565   2.389   2.213   2.159
  841SOL     OW 2566   2.428   2.399   2.727
  841SOL    HW1 2567   2.440   2.465   2.653
  841SOL    HW2 2568   2.474   2.433   2.810
  842SOL     OW 2569   2.435   2.732   2.891
  842SOL    HW1 2570   2.479   2.821   2.882
  842SOL    HW2 2571   2.372   2.732   2.968
  843SOL     OW 2572   3.071   2.387   2.137
  843SOL    HW1 2573   3.084   2.303   2.191
  843SOL    HW2 2574   3.042   2.461   2.197
  844SOL     OW 2575   2.169   2.075   3.093
  844SOL    HW1 2576   2.146   2.112   3.183
  844SOL    HW2 2577   2.139   1.980   3.087
  845SOL     OW 2578   2.594   2.496   2.926
  845SOL    HW1 2579   2.653   2.470   2.850
  845SOL    HW2 2580   2.566   2.592   2.915
  846SOL     OW 2581   2.169   1.925   2.480
  846SOL    HW1 2582   2.158   2.019   2.513
  846SOL    HW2 2583   2.164   1.862   2.557
  847SOL     OW 2584   2.885   2.628   2.828
  847SOL    HW1 2585   2.900   2.649   2.924
  847SOL    HW2 2586   2.855   2.533   2.819
  848SOL     OW 2587   2.181   2.672   2.811
  848SOL    HW1 2588   2.274   2.708   2.816
  848SOL    HW2 2589   2.175   2.587   2.863
  849SOL     OW 2590   2.201   2.371   2.868
  849SOL    HW1 2591   2.149   2.288   2.851
  849SOL    HW2 2592   2.278   2.376   2.804
  850SOL     OW 2593   2.864   2.658   3.100
  850SOL    HW1 2594   2.905   2.626   3.186
  850SOL    HW2 2595   2.768   2.631   3.097
  851SOL     OW 2596   2.677   2.434   2.187
  851SOL    HW1 2597   2.684   2.345   2.141
  851SOL    HW2 2598   2.583   2.468   2.179
  852SOL     OW 2599   2.533   2.326   3.131
  852SOL    HW1 2600   2.499   2.237   3.101
  852SOL    HW2 2601   2.559   2.380   3.051
  853SOL     OW 2602   2.335   2.362   2.053
  853SOL    HW1 2603   2.396   2.442   2.057
  853SOL    HW2 2604   2.240   2.393   2.060
  854SOL     OW 2605   3.164   2.717   2.171
  854SOL    HW1 2606   3.078   2.686   2.213
  854SOL    HW2 2607   3.160   2.703   2.072
  855SOL     OW 2608   2.125   2.188   2.582
  855SOL    HW1 2609   2.046   2.239   2.548
  855SOL    HW2 2610   2.116   2.173   2.680
  856SOL     OW 2611   2.778   2.772   2.153
  856SOL    HW1 2612   2.841   2.810   2.085
  856SOL    HW2 2613   2.818   2.689   2.192
  857SOL     OW 2614   2.876   2.098   2.833
  857SOL    HW1 2615   2.868   2.062   2.740
  857SOL    HW2 2616   2.874   2.022   2.898
  858SOL     OW 2617   1.937   2.207   1.895
  858SOL    HW1 2618   1.845   2.179   1.866
  858SOL    HW2 2619   1.968   2.284   1.839
  859SOL     OW 2620   1.934   2.028   2.180
  859SOL    HW1 2621   1.917   2.111   2.126
  859SOL    HW2 2622   2.024   1.991   2.158
  860SOL     OW 2623   2.456   2.607   2.514
  860SOL    HW1 2624   2.506   2.692   2.495
  860SOL    HW2 2625   2.368   2.609   2.466
  861SOL     OW 2626   2.721   2.818   2.723
  861SOL    HW1 2627   2.775   2.749   2.771
  861SOL    HW2 2628   2.689   2.887   2.789
  862SOL     OW 2629   2.945   2.846   1.949
  862SOL    HW1 2630   2.922   2.899   1.867
  862SOL    HW2 2631   3.026   2.790   1.930
  863SOL     OW 2632   2.290   2.286   2.382
  863SOL    HW1 2633   2.320   2.214   2.320
  863SOL    HW2 2634   2.251   2.246   2.465
  864SOL     OW 2635   1.901   2.939   2.162
  864SOL    HW1 2636   2.000   2.928   2.153
  864SOL    HW2 2637   1.861   2.853   2.194
  865CL      CL 2638   1.754   1.223   1.588
   3.00000   3.00000   3.00000
