GRoups of Organic Molecules in ACtion for Science
   60
    1ACE    CH3    1   0.837   1.239   1.294
    1ACE   HH31    2   0.825   1.167   1.374
    1ACE   HH32    3   0.802   1.335   1.328
    1ACE   HH33    4   0.777   1.207   1.210
    1ACE      C    5   0.983   1.248   1.255
    1ACE      O    6   1.044   1.149   1.213
    2ALA      N    7   1.044   1.361   1.264
    2ALA     HN    8   0.996   1.443   1.298
    2ALA     CA    9   1.185   1.368   1.225
    2ALA     HA   10   1.228   1.267   1.229
    2ALA     CB   11   1.191   1.421   1.081
    2ALA    HB1   12   1.136   1.356   1.011
    2ALA    HB2   13   1.146   1.522   1.072
    2ALA    HB3   14   1.294   1.428   1.044
    2ALA      C   15   1.263   1.454   1.322
    2ALA      O   16   1.221   1.563   1.362
    3ARG      N   17   1.378   1.412   1.364
    3ARG     HN   18   1.414   1.323   1.333
    3ARG     CA   19   1.453   1.494   1.458
    3ARG     HA   20   1.417   1.598   1.449
    3ARG     CB   21   1.429   1.442   1.602
    3ARG    HB1   22   1.475   1.341   1.611
    3ARG    HB2   23   1.475   1.353   1.611
    3ARG     CG   24   1.479   1.534   1.717
    3ARG    HG1   25   1.430   1.633   1.708
    3ARG    HG2   26   1.432   1.621   1.711
    3ARG     CD   27   1.455   1.473   1.855
    3ARG    HD1   28   1.507   1.375   1.862
    3ARG    HD2   29   1.504   1.386   1.864
    3ARG     NE   30   1.503   1.566   1.961
    3ARG     HE   31   1.545   1.657   1.936
    3ARG     CZ   32   1.497   1.544   2.092
    3ARG    NH1   33   1.449   1.435   2.145
    3ARG   HH11   34   1.414   1.367   2.076
    3ARG   HH12   35   1.448   1.426   2.246
    3ARG    NH2   36   1.543   1.635   2.172
    3ARG   HH21   37   1.581   1.720   2.129
    3ARG   HH22   38   1.538   1.617   2.272
    3ARG      C   39   1.600   1.494   1.423
    3ARG      O   40   1.660   1.391   1.395
    4ASN      N   41   1.665   1.606   1.424
    4ASN     HN   42   1.617   1.692   1.447
    4ASN     CA   43   1.807   1.606   1.390
    4ASN     HA   44   1.847   1.504   1.407
    4ASN     CB   45   1.825   1.647   1.241
    4ASN    HB1   46   1.932   1.649   1.215
    4ASN    HB2   47   1.791   1.751   1.227
    4ASN     CG   48   1.752   1.562   1.137
    4ASN    OD1   49   1.647   1.598   1.085
    4ASN    ND2   50   1.803   1.446   1.103
    4ASN   HD21   51   1.739   1.391   1.044
    4ASN   HD22   52   1.885   1.415   1.154
    4ASN      C   53   1.884   1.699   1.481
    4ASN      O   54   1.843   1.812   1.508
    5CT3      N   55   1.995   1.658   1.532
    5CT3     HN   56   2.030   1.566   1.511
    5CT3    CH3   57   2.071   1.746   1.620
    5CT3   HH31   58   2.131   1.814   1.561
    5CT3   HH32   59   2.004   1.804   1.682
    5CT3   HH33   60   2.136   1.688   1.683
   3.00000   3.00000   3.00000
