GRoups of Organic Molecules in ACtion for Science
   60
    1ACE    CH3    1  -0.041   0.015   0.015
    1ACE   HH31    2  -0.053  -0.057   0.095
    1ACE   HH32    3  -0.076   0.111   0.049
    1ACE   HH33    4  -0.101  -0.017  -0.069
    1ACE      C    5   0.105   0.024  -0.024
    1ACE      O    6   0.166  -0.075  -0.066
    2ALA      N    7   0.166   0.137  -0.015
    2ALA     HN    8   0.118   0.219   0.019
    2ALA     CA    9   0.307   0.144  -0.054
    2ALA     HA   10   0.350   0.043  -0.050
    2ALA     CB   11   0.313   0.197  -0.198
    2ALA    HB1   12   0.258   0.132  -0.268
    2ALA    HB2   13   0.268   0.298  -0.207
    2ALA    HB3   14   0.416   0.204  -0.235
    2ALA      C   15   0.385   0.230   0.043
    2ALA      O   16   0.343   0.339   0.083
    3ARG      N   17   0.500   0.188   0.085
    3ARG     HN   18   0.536   0.099   0.054
    3ARG     CA   19   0.575   0.270   0.179
    3ARG     HA   20   0.539   0.374   0.170
    3ARG     CB   21   0.551   0.218   0.323
    3ARG    HB1   22   0.597   0.117   0.332
    3ARG    HB2   23   0.597   0.129   0.332
    3ARG     CG   24   0.601   0.310   0.438
    3ARG    HG1   25   0.552   0.409   0.429
    3ARG    HG2   26   0.554   0.397   0.432
    3ARG     CD   27   0.577   0.249   0.576
    3ARG    HD1   28   0.629   0.151   0.583
    3ARG    HD2   29   0.626   0.162   0.585
    3ARG     NE   30   0.625   0.342   0.682
    3ARG     HE   31   0.667   0.433   0.657
    3ARG     CZ   32   0.619   0.320   0.813
    3ARG    NH1   33   0.571   0.211   0.866
    3ARG   HH11   34   0.536   0.143   0.797
    3ARG   HH12   35   0.570   0.202   0.967
    3ARG    NH2   36   0.665   0.411   0.893
    3ARG   HH21   37   0.703   0.496   0.850
    3ARG   HH22   38   0.660   0.393   0.993
    3ARG      C   39   0.722   0.270   0.144
    3ARG      O   40   0.782   0.167   0.116
    4ASN      N   41   0.787   0.382   0.145
    4ASN     HN   42   0.739   0.468   0.168
    4ASN     CA   43   0.929   0.382   0.111
    4ASN     HA   44   0.969   0.280   0.128
    4ASN     CB   45   0.947   0.423  -0.038
    4ASN    HB1   46   1.054   0.425  -0.064
    4ASN    HB2   47   0.913   0.527  -0.052
    4ASN     CG   48   0.874   0.338  -0.142
    4ASN    OD1   49   0.769   0.374  -0.194
    4ASN    ND2   50   0.925   0.222  -0.176
    4ASN   HD21   51   0.861   0.167  -0.235
    4ASN   HD22   52   1.007   0.191  -0.125
    4ASN      C   53   1.006   0.475   0.202
    4ASN      O   54   0.965   0.588   0.229
    5CT3      N   55   1.117   0.434   0.253
    5CT3     HN   56   1.152   0.342   0.232
    5CT3    CH3   57   1.193   0.522   0.341
    5CT3   HH31   58   1.253   0.590   0.282
    5CT3   HH32   59   1.126   0.580   0.403
    5CT3   HH33   60   1.258   0.464   0.404
   1.35840   0.66540   1.26120
